Host machine: th30.int.uef.fi
Temporary directory: /tmp/gaussian_2982
Input file: 1_qua_n4q6.gjf
Output file: 1_qua_n4q6.log

 Entering Gaussian System, Link 0=g16
 Initial command:
 /home/export/gaussian/g16_a03/g16/l1.exe "/tmp/gaussian_2982/Gau-11295.inp" -scrdir="/tmp/gaussian_2982/"
 Entering Link 1 = /home/export/gaussian/g16_a03/g16/l1.exe PID=     11296.
  
 Copyright (c) 1988,1990,1992,1993,1995,1998,2003,2009,2016,
            Gaussian, Inc.  All Rights Reserved.
  
 This is part of the Gaussian(R) 16 program.  It is based on
 the Gaussian(R) 09 system (copyright 2009, Gaussian, Inc.),
 the Gaussian(R) 03 system (copyright 2003, Gaussian, Inc.),
 the Gaussian(R) 98 system (copyright 1998, Gaussian, Inc.),
 the Gaussian(R) 94 system (copyright 1995, Gaussian, Inc.),
 the Gaussian 92(TM) system (copyright 1992, Gaussian, Inc.),
 the Gaussian 90(TM) system (copyright 1990, Gaussian, Inc.),
 the Gaussian 88(TM) system (copyright 1988, Gaussian, Inc.),
 the Gaussian 86(TM) system (copyright 1986, Carnegie Mellon
 University), and the Gaussian 82(TM) system (copyright 1983,
 Carnegie Mellon University). Gaussian is a federally registered
 trademark of Gaussian, Inc.
  
 This software contains proprietary and confidential information,
 including trade secrets, belonging to Gaussian, Inc.
  
 This software is provided under written license and may be
 used, copied, transmitted, or stored only in accord with that
 written license.
  
 The following legend is applicable only to US Government
 contracts under FAR:
  
                    RESTRICTED RIGHTS LEGEND
  
 Use, reproduction and disclosure by the US Government is
 subject to restrictions as set forth in subparagraphs (a)
 and (c) of the Commercial Computer Software - Restricted
 Rights clause in FAR 52.227-19.
  
 Gaussian, Inc.
 340 Quinnipiac St., Bldg. 40, Wallingford CT 06492
  
  
 ---------------------------------------------------------------
 Warning -- This program may not be used in any manner that
 competes with the business of Gaussian, Inc. or will provide
 assistance to any competitor of Gaussian, Inc.  The licensee
 of this program is prohibited from giving any competitor of
 Gaussian, Inc. access to this program.  By using this program,
 the user acknowledges that Gaussian, Inc. is engaged in the
 business of creating and licensing software in the field of
 computational chemistry and represents and warrants to the
 licensee that it is not a competitor of Gaussian, Inc. and that
 it will not use this program in any manner prohibited above.
 ---------------------------------------------------------------
  

 Cite this work as:
 Gaussian 16, Revision A.03,
 M. J. Frisch, G. W. Trucks, H. B. Schlegel, G. E. Scuseria, 
 M. A. Robb, J. R. Cheeseman, G. Scalmani, V. Barone, 
 G. A. Petersson, H. Nakatsuji, X. Li, M. Caricato, A. V. Marenich, 
 J. Bloino, B. G. Janesko, R. Gomperts, B. Mennucci, H. P. Hratchian, 
 J. V. Ortiz, A. F. Izmaylov, J. L. Sonnenberg, D. Williams-Young, 
 F. Ding, F. Lipparini, F. Egidi, J. Goings, B. Peng, A. Petrone, 
 T. Henderson, D. Ranasinghe, V. G. Zakrzewski, J. Gao, N. Rega, 
 G. Zheng, W. Liang, M. Hada, M. Ehara, K. Toyota, R. Fukuda, 
 J. Hasegawa, M. Ishida, T. Nakajima, Y. Honda, O. Kitao, H. Nakai, 
 T. Vreven, K. Throssell, J. A. Montgomery, Jr., J. E. Peralta, 
 F. Ogliaro, M. J. Bearpark, J. J. Heyd, E. N. Brothers, K. N. Kudin, 
 V. N. Staroverov, T. A. Keith, R. Kobayashi, J. Normand, 
 K. Raghavachari, A. P. Rendell, J. C. Burant, S. S. Iyengar, 
 J. Tomasi, M. Cossi, J. M. Millam, M. Klene, C. Adamo, R. Cammi, 
 J. W. Ochterski, R. L. Martin, K. Morokuma, O. Farkas, 
 J. B. Foresman, and D. J. Fox, Gaussian, Inc., Wallingford CT, 2016.
 
 ******************************************
 Gaussian 16:  ES64L-G16RevA.03 25-Dec-2016
                 8-Jan-2021 
 ******************************************
 %nproc=24
 Will use up to   24 processors via shared memory.
 %chk=/home/peter/1_qua_n4q6.chk
 %mem=96000MB
 -----------------------------------------------------
 # opt freq geom=connectivity int=ultrafine m062x tzvp
 -----------------------------------------------------
 1/18=20,19=15,26=4,38=1,57=2/1,3;
 2/9=110,12=2,17=6,18=5,40=1/2;
 3/5=19,7=101,11=2,25=1,30=1,71=1,74=-55,75=-5/1,2,3;
 4//1;
 5/5=2,38=5/2;
 6/7=2,8=2,9=2,10=2,28=1/1;
 7//1,2,3,16;
 1/18=20,19=15,26=4/3(2);
 2/9=110/2;
 99//99;
 2/9=110/2;
 3/5=19,7=101,11=2,25=1,30=1,71=1,74=-55,75=-5/1,2,3;
 4/5=5,16=3,69=1/1;
 5/5=2,38=5/2;
 7//1,2,3,16;
 1/18=20,19=15,26=4/3(-5);
 2/9=110/2;
 6/7=2,8=2,9=2,10=2,19=2,28=1/1;
 99/9=1/99;
 -------------------
 Title Card Required
 -------------------
 Symbolic Z-matrix:
 Charge =  0 Multiplicity = 1
 Mg                   -0.6041    1.74835   0.26628 
 Cl                    1.03145   0.5302   -1.24682 
 Cl                   -2.29841   2.79579   1.69106 
 Cl                   -2.49474   1.3038   -1.27 
 Cl                   -1.0313   -0.52987   1.24544 
 Mg                   -3.07319  -0.93529  -0.28099 
 Mg                    0.60377  -1.74722  -0.26832 
 Cl                   -4.55924   0.34355   1.25086 
 Cl                   -1.45186  -2.41757  -1.48044 
 Cl                    2.29844  -2.79759  -1.69086 
 Cl                    1.452     2.4175    1.47877 
 Cl                   -0.16748   4.03854  -0.90858 
 Cl                    2.49454  -1.30305   1.26815 
 Mg                    3.07425   0.93644   0.27843 
 Cl                    0.1676   -4.03713   0.90876 
 Cl                    4.98877   1.25168   1.66344 
 Cl                    4.55984  -0.34428  -1.25177 
 Cl                   -4.98964  -1.2516   -1.66371 
 Cl                    5.81383  -1.95064   1.27328 
 Cl                   -5.81455   1.95106  -1.27235 
 Cl                   -7.86851  -1.5857    1.36484 
 Cl                   -3.55022  -3.16211   1.00619 
 Cl                    8.94026   0.20193   0.97486 
 Cl                    3.54955   3.16245  -1.0088 
 Cl                    2.42923   6.47072   0.94251 
 Cl                   -4.97156   4.8963    0.5073 
 Cl                   -8.94045  -0.20432  -0.97451 
 Cl                   -2.42739  -6.47124  -0.9413 
 Cl                    4.97044  -4.89712  -0.50403 
 Cl                    7.86879   1.58611  -1.36306 
 Al                    1.94047   4.54671  -0.23876 
 Al                   -4.21234   2.73125   0.23851 
 Al                   -6.76684  -0.28843  -0.19706 
 Al                   -1.93999  -4.54643   0.23923 
 Al                    4.21167  -2.73163  -0.23752 
 Al                    6.76664   0.28775   0.1976 
 

 GradGradGradGradGradGradGradGradGradGradGradGradGradGradGradGradGradGrad
 Berny optimization.
 Initialization pass.
                           ----------------------------
                           !    Initial Parameters    !
                           ! (Angstroms and Degrees)  !
 --------------------------                            --------------------------
 ! Name  Definition              Value          Derivative Info.                !
 --------------------------------------------------------------------------------
 ! R1    R(1,2)                  2.5394         estimate D2E/DX2                !
 ! R2    R(1,3)                  2.449          estimate D2E/DX2                !
 ! R3    R(1,4)                  2.4763         estimate D2E/DX2                !
 ! R4    R(1,5)                  2.5163         estimate D2E/DX2                !
 ! R5    R(1,11)                 2.479          estimate D2E/DX2                !
 ! R6    R(1,12)                 2.6107         estimate D2E/DX2                !
 ! R7    R(2,7)                  2.5154         estimate D2E/DX2                !
 ! R8    R(2,14)                 2.5816         estimate D2E/DX2                !
 ! R9    R(3,32)                 2.4036         estimate D2E/DX2                !
 ! R10   R(4,6)                  2.5152         estimate D2E/DX2                !
 ! R11   R(4,32)                 2.6951         estimate D2E/DX2                !
 ! R12   R(5,6)                  2.5814         estimate D2E/DX2                !
 ! R13   R(5,7)                  2.5391         estimate D2E/DX2                !
 ! R14   R(6,8)                  2.488          estimate D2E/DX2                !
 ! R15   R(6,9)                  2.5029         estimate D2E/DX2                !
 ! R16   R(6,18)                 2.3843         estimate D2E/DX2                !
 ! R17   R(6,22)                 2.6159         estimate D2E/DX2                !
 ! R18   R(7,9)                  2.4788         estimate D2E/DX2                !
 ! R19   R(7,10)                 2.4492         estimate D2E/DX2                !
 ! R20   R(7,13)                 2.4765         estimate D2E/DX2                !
 ! R21   R(7,15)                 2.6114         estimate D2E/DX2                !
 ! R22   R(8,32)                 2.6165         estimate D2E/DX2                !
 ! R23   R(8,33)                 2.7147         estimate D2E/DX2                !
 ! R24   R(9,34)                 2.7798         estimate D2E/DX2                !
 ! R25   R(10,35)                2.4035         estimate D2E/DX2                !
 ! R26   R(11,14)                2.5032         estimate D2E/DX2                !
 ! R27   R(11,31)                2.7789         estimate D2E/DX2                !
 ! R28   R(12,31)                2.2694         estimate D2E/DX2                !
 ! R29   R(13,14)                2.5161         estimate D2E/DX2                !
 ! R30   R(13,35)                2.6938         estimate D2E/DX2                !
 ! R31   R(14,16)                2.3839         estimate D2E/DX2                !
 ! R32   R(14,17)                2.4877         estimate D2E/DX2                !
 ! R33   R(14,24)                2.615          estimate D2E/DX2                !
 ! R34   R(15,34)                2.2693         estimate D2E/DX2                !
 ! R35   R(16,36)                2.4977         estimate D2E/DX2                !
 ! R36   R(17,35)                2.6171         estimate D2E/DX2                !
 ! R37   R(17,36)                2.7148         estimate D2E/DX2                !
 ! R38   R(18,33)                2.4974         estimate D2E/DX2                !
 ! R39   R(19,35)                2.3365         estimate D2E/DX2                !
 ! R40   R(19,36)                2.66           estimate D2E/DX2                !
 ! R41   R(20,32)                2.3363         estimate D2E/DX2                !
 ! R42   R(20,33)                2.6605         estimate D2E/DX2                !
 ! R43   R(21,33)                2.31           estimate D2E/DX2                !
 ! R44   R(22,34)                2.2577         estimate D2E/DX2                !
 ! R45   R(23,36)                2.31           estimate D2E/DX2                !
 ! R46   R(24,31)                2.2579         estimate D2E/DX2                !
 ! R47   R(25,31)                2.31           estimate D2E/DX2                !
 ! R48   R(26,32)                2.31           estimate D2E/DX2                !
 ! R49   R(27,33)                2.31           estimate D2E/DX2                !
 ! R50   R(28,34)                2.31           estimate D2E/DX2                !
 ! R51   R(29,35)                2.31           estimate D2E/DX2                !
 ! R52   R(30,36)                2.31           estimate D2E/DX2                !
 ! A1    A(2,1,4)               92.061          estimate D2E/DX2                !
 ! A2    A(2,1,5)               84.6574         estimate D2E/DX2                !
 ! A3    A(2,1,11)              83.4957         estimate D2E/DX2                !
 ! A4    A(2,1,12)              92.5764         estimate D2E/DX2                !
 ! A5    A(3,1,4)               84.8078         estimate D2E/DX2                !
 ! A6    A(3,1,5)               92.4868         estimate D2E/DX2                !
 ! A7    A(3,1,11)             100.0095         estimate D2E/DX2                !
 ! A8    A(3,1,12)              90.1333         estimate D2E/DX2                !
 ! A9    A(4,1,5)               87.0911         estimate D2E/DX2                !
 ! A10   A(4,1,12)              90.3429         estimate D2E/DX2                !
 ! A11   A(5,1,11)             101.2375         estimate D2E/DX2                !
 ! A12   A(11,1,12)             81.0605         estimate D2E/DX2                !
 ! A13   A(1,2,7)               95.3375         estimate D2E/DX2                !
 ! A14   A(1,2,14)              94.7106         estimate D2E/DX2                !
 ! A15   A(7,2,14)              92.7044         estimate D2E/DX2                !
 ! A16   A(1,3,32)             100.8259         estimate D2E/DX2                !
 ! A17   A(1,4,6)               95.2476         estimate D2E/DX2                !
 ! A18   A(1,4,32)              92.5362         estimate D2E/DX2                !
 ! A19   A(6,4,32)              96.0182         estimate D2E/DX2                !
 ! A20   A(1,5,6)               92.6589         estimate D2E/DX2                !
 ! A21   A(1,5,7)               95.3228         estimate D2E/DX2                !
 ! A22   A(6,5,7)               94.6772         estimate D2E/DX2                !
 ! A23   A(4,6,5)               84.8814         estimate D2E/DX2                !
 ! A24   A(4,6,8)               85.52           estimate D2E/DX2                !
 ! A25   A(4,6,9)              100.9408         estimate D2E/DX2                !
 ! A26   A(4,6,18)              94.2967         estimate D2E/DX2                !
 ! A27   A(5,6,8)               91.5849         estimate D2E/DX2                !
 ! A28   A(5,6,9)               82.183          estimate D2E/DX2                !
 ! A29   A(5,6,22)              89.254          estimate D2E/DX2                !
 ! A30   A(8,6,18)              86.8565         estimate D2E/DX2                !
 ! A31   A(8,6,22)              91.4713         estimate D2E/DX2                !
 ! A32   A(9,6,18)              99.4502         estimate D2E/DX2                !
 ! A33   A(9,6,22)              81.3612         estimate D2E/DX2                !
 ! A34   A(18,6,22)             91.4813         estimate D2E/DX2                !
 ! A35   A(2,7,5)               84.6823         estimate D2E/DX2                !
 ! A36   A(2,7,9)              101.2818         estimate D2E/DX2                !
 ! A37   A(2,7,10)              92.562          estimate D2E/DX2                !
 ! A38   A(2,7,13)              87.0852         estimate D2E/DX2                !
 ! A39   A(5,7,9)               83.521          estimate D2E/DX2                !
 ! A40   A(5,7,13)              92.0504         estimate D2E/DX2                !
 ! A41   A(5,7,15)              92.5296         estimate D2E/DX2                !
 ! A42   A(9,7,10)             100.0093         estimate D2E/DX2                !
 ! A43   A(9,7,15)              81.069          estimate D2E/DX2                !
 ! A44   A(10,7,13)             84.7785         estimate D2E/DX2                !
 ! A45   A(10,7,15)             90.0749         estimate D2E/DX2                !
 ! A46   A(13,7,15)             90.2948         estimate D2E/DX2                !
 ! A47   A(6,8,32)              98.7221         estimate D2E/DX2                !
 ! A48   A(6,8,33)              92.1586         estimate D2E/DX2                !
 ! A49   A(32,8,33)             96.5398         estimate D2E/DX2                !
 ! A50   A(6,9,7)               98.204          estimate D2E/DX2                !
 ! A51   A(6,9,34)              92.4834         estimate D2E/DX2                !
 ! A52   A(7,9,34)              92.8787         estimate D2E/DX2                !
 ! A53   A(7,10,35)            100.8249         estimate D2E/DX2                !
 ! A54   A(1,11,14)             98.237          estimate D2E/DX2                !
 ! A55   A(1,11,31)             92.884          estimate D2E/DX2                !
 ! A56   A(14,11,31)            92.467          estimate D2E/DX2                !
 ! A57   A(1,12,31)            102.6471         estimate D2E/DX2                !
 ! A58   A(7,13,14)             95.2497         estimate D2E/DX2                !
 ! A59   A(7,13,35)             92.5667         estimate D2E/DX2                !
 ! A60   A(14,13,35)            96.044          estimate D2E/DX2                !
 ! A61   A(2,14,11)             82.1606         estimate D2E/DX2                !
 ! A62   A(2,14,13)             84.8379         estimate D2E/DX2                !
 ! A63   A(2,14,17)             91.6111         estimate D2E/DX2                !
 ! A64   A(2,14,24)             89.2523         estimate D2E/DX2                !
 ! A65   A(11,14,13)           100.8756         estimate D2E/DX2                !
 ! A66   A(11,14,16)            99.4175         estimate D2E/DX2                !
 ! A67   A(11,14,24)            81.3836         estimate D2E/DX2                !
 ! A68   A(13,14,16)            94.2554         estimate D2E/DX2                !
 ! A69   A(13,14,17)            85.4875         estimate D2E/DX2                !
 ! A70   A(16,14,17)            86.8959         estimate D2E/DX2                !
 ! A71   A(16,14,24)            91.5728         estimate D2E/DX2                !
 ! A72   A(17,14,24)            91.5422         estimate D2E/DX2                !
 ! A73   A(7,15,34)            102.6467         estimate D2E/DX2                !
 ! A74   A(14,16,36)           100.3493         estimate D2E/DX2                !
 ! A75   A(14,17,35)            98.731          estimate D2E/DX2                !
 ! A76   A(14,17,36)            92.1313         estimate D2E/DX2                !
 ! A77   A(35,17,36)            96.5237         estimate D2E/DX2                !
 ! A78   A(6,18,33)            100.3839         estimate D2E/DX2                !
 ! A79   A(35,19,36)           105.3918         estimate D2E/DX2                !
 ! A80   A(32,20,33)           105.378          estimate D2E/DX2                !
 ! A81   A(6,22,34)            102.987          estimate D2E/DX2                !
 ! A82   A(14,24,31)           102.9718         estimate D2E/DX2                !
 ! A83   A(11,31,12)            81.2327         estimate D2E/DX2                !
 ! A84   A(11,31,24)            82.3173         estimate D2E/DX2                !
 ! A85   A(11,31,25)           111.0582         estimate D2E/DX2                !
 ! A86   A(12,31,24)           115.0868         estimate D2E/DX2                !
 ! A87   A(12,31,25)           122.2734         estimate D2E/DX2                !
 ! A88   A(24,31,25)           122.2924         estimate D2E/DX2                !
 ! A89   A(3,32,4)              81.083          estimate D2E/DX2                !
 ! A90   A(3,32,8)              84.0451         estimate D2E/DX2                !
 ! A91   A(3,32,20)            161.0578         estimate D2E/DX2                !
 ! A92   A(3,32,26)             99.5684         estimate D2E/DX2                !
 ! A93   A(4,32,8)              79.4978         estimate D2E/DX2                !
 ! A94   A(4,32,20)             84.1583         estimate D2E/DX2                !
 ! A95   A(4,32,26)            140.4449         estimate D2E/DX2                !
 ! A96   A(8,32,20)             81.6369         estimate D2E/DX2                !
 ! A97   A(8,32,26)            140.0569         estimate D2E/DX2                !
 ! A98   A(20,32,26)            99.3717         estimate D2E/DX2                !
 ! A99   A(8,33,18)             79.8819         estimate D2E/DX2                !
 ! A100  A(8,33,20)             74.2483         estimate D2E/DX2                !
 ! A101  A(8,33,21)             99.0871         estimate D2E/DX2                !
 ! A102  A(8,33,27)            159.4286         estimate D2E/DX2                !
 ! A103  A(18,33,20)            80.3616         estimate D2E/DX2                !
 ! A104  A(18,33,21)           121.3233         estimate D2E/DX2                !
 ! A105  A(18,33,27)           119.0772         estimate D2E/DX2                !
 ! A106  A(20,33,21)           156.4472         estimate D2E/DX2                !
 ! A107  A(20,33,27)            99.7952         estimate D2E/DX2                !
 ! A108  A(21,33,27)            78.4195         estimate D2E/DX2                !
 ! A109  A(9,34,15)             81.2317         estimate D2E/DX2                !
 ! A110  A(9,34,22)             82.2893         estimate D2E/DX2                !
 ! A111  A(9,34,28)            111.0403         estimate D2E/DX2                !
 ! A112  A(15,34,22)           115.1226         estimate D2E/DX2                !
 ! A113  A(15,34,28)           122.2593         estimate D2E/DX2                !
 ! A114  A(22,34,28)           122.2776         estimate D2E/DX2                !
 ! A115  A(10,35,13)            81.0899         estimate D2E/DX2                !
 ! A116  A(10,35,17)            84.0648         estimate D2E/DX2                !
 ! A117  A(10,35,19)           161.0796         estimate D2E/DX2                !
 ! A118  A(10,35,29)            99.5544         estimate D2E/DX2                !
 ! A119  A(13,35,17)            79.4934         estimate D2E/DX2                !
 ! A120  A(13,35,19)            84.1698         estimate D2E/DX2                !
 ! A121  A(13,35,29)           140.4453         estimate D2E/DX2                !
 ! A122  A(17,35,19)            81.6311         estimate D2E/DX2                !
 ! A123  A(17,35,29)           140.061          estimate D2E/DX2                !
 ! A124  A(19,35,29)            99.3639         estimate D2E/DX2                !
 ! A125  A(16,36,17)            79.8956         estimate D2E/DX2                !
 ! A126  A(16,36,19)            80.3552         estimate D2E/DX2                !
 ! A127  A(16,36,23)           119.1199         estimate D2E/DX2                !
 ! A128  A(16,36,30)           121.2781         estimate D2E/DX2                !
 ! A129  A(17,36,19)            74.2646         estimate D2E/DX2                !
 ! A130  A(17,36,23)           159.37           estimate D2E/DX2                !
 ! A131  A(17,36,30)            99.0911         estimate D2E/DX2                !
 ! A132  A(19,36,23)            99.7717         estimate D2E/DX2                !
 ! A133  A(19,36,30)           156.5064         estimate D2E/DX2                !
 ! A134  A(23,36,30)            78.4196         estimate D2E/DX2                !
 ! A135  L(2,1,3,4,-1)         176.8688         estimate D2E/DX2                !
 ! A136  L(4,1,11,2,-1)        175.5568         estimate D2E/DX2                !
 ! A137  L(5,1,12,2,-1)        177.2338         estimate D2E/DX2                !
 ! A138  L(4,6,22,5,-1)        174.1354         estimate D2E/DX2                !
 ! A139  L(5,6,18,4,-1)        179.1781         estimate D2E/DX2                !
 ! A140  L(8,6,9,4,-1)         186.4608         estimate D2E/DX2                !
 ! A141  L(2,7,15,5,-1)        177.2119         estimate D2E/DX2                !
 ! A142  L(5,7,10,2,-1)        177.2443         estimate D2E/DX2                !
 ! A143  L(9,7,13,2,-1)        188.367          estimate D2E/DX2                !
 ! A144  L(2,14,16,11,-1)      181.5781         estimate D2E/DX2                !
 ! A145  L(11,14,17,2,-1)      173.7717         estimate D2E/DX2                !
 ! A146  L(13,14,24,2,-1)      174.0902         estimate D2E/DX2                !
 ! A147  L(2,1,3,4,-2)         177.3069         estimate D2E/DX2                !
 ! A148  L(4,1,11,2,-2)        171.1315         estimate D2E/DX2                !
 ! A149  L(5,1,12,2,-2)        177.3197         estimate D2E/DX2                !
 ! A150  L(4,6,22,5,-2)        176.8092         estimate D2E/DX2                !
 ! A151  L(5,6,18,4,-2)        181.5014         estimate D2E/DX2                !
 ! A152  L(8,6,9,4,-2)         173.0005         estimate D2E/DX2                !
 ! A153  L(2,7,15,5,-2)        182.7346         estimate D2E/DX2                !
 ! A154  L(5,7,10,2,-2)        176.9691         estimate D2E/DX2                !
 ! A155  L(9,7,13,2,-2)        174.6255         estimate D2E/DX2                !
 ! A156  L(2,14,16,11,-2)      179.3957         estimate D2E/DX2                !
 ! A157  L(11,14,17,2,-2)      172.927          estimate D2E/DX2                !
 ! A158  L(13,14,24,2,-2)      183.1568         estimate D2E/DX2                !
 ! D1    D(4,1,2,7)            -86.8681         estimate D2E/DX2                !
 ! D2    D(4,1,2,14)           179.9648         estimate D2E/DX2                !
 ! D3    D(5,1,2,7)              0.0153         estimate D2E/DX2                !
 ! D4    D(5,1,2,14)           -93.1518         estimate D2E/DX2                !
 ! D5    D(11,1,2,7)           102.0004         estimate D2E/DX2                !
 ! D6    D(11,1,2,14)            8.8333         estimate D2E/DX2                !
 ! D7    D(12,1,2,7)          -177.3044         estimate D2E/DX2                !
 ! D8    D(12,1,2,14)           89.5285         estimate D2E/DX2                !
 ! D9    D(7,2,3,32)           -93.7379         estimate D2E/DX2                !
 ! D10   D(14,2,3,32)          173.1028         estimate D2E/DX2                !
 ! D11   D(4,1,3,32)            -7.0953         estimate D2E/DX2                !
 ! D12   D(5,1,3,32)           -93.9452         estimate D2E/DX2                !
 ! D13   D(11,1,3,32)          164.1819         estimate D2E/DX2                !
 ! D14   D(12,1,3,32)           83.2369         estimate D2E/DX2                !
 ! D15   D(2,1,4,6)             87.2406         estimate D2E/DX2                !
 ! D16   D(2,1,4,32)          -176.4754         estimate D2E/DX2                !
 ! D17   D(3,1,4,6)            -90.0663         estimate D2E/DX2                !
 ! D18   D(3,1,4,32)             6.2177         estimate D2E/DX2                !
 ! D19   D(5,1,4,6)              2.6988         estimate D2E/DX2                !
 ! D20   D(5,1,4,32)            98.9828         estimate D2E/DX2                !
 ! D21   D(12,1,4,6)           179.831          estimate D2E/DX2                !
 ! D22   D(12,1,4,32)          -83.885          estimate D2E/DX2                !
 ! D23   D(1,2,15,34)           70.0789         estimate D2E/DX2                !
 ! D24   D(14,2,15,34)         164.9011         estimate D2E/DX2                !
 ! D25   D(1,2,16,36)         -174.8063         estimate D2E/DX2                !
 ! D26   D(7,2,16,36)           89.6147         estimate D2E/DX2                !
 ! D27   D(6,4,11,14)           77.701          estimate D2E/DX2                !
 ! D28   D(6,4,11,31)          169.9775         estimate D2E/DX2                !
 ! D29   D(32,4,11,14)         174.5847         estimate D2E/DX2                !
 ! D30   D(32,4,11,31)         -93.1388         estimate D2E/DX2                !
 ! D31   D(2,1,5,6)            -94.9665         estimate D2E/DX2                !
 ! D32   D(2,1,5,7)             -0.0152         estimate D2E/DX2                !
 ! D33   D(3,1,5,6)             82.0478         estimate D2E/DX2                !
 ! D34   D(3,1,5,7)            176.9992         estimate D2E/DX2                !
 ! D35   D(4,1,5,6)             -2.6213         estimate D2E/DX2                !
 ! D36   D(4,1,5,7)             92.33           estimate D2E/DX2                !
 ! D37   D(11,1,5,6)          -177.2324         estimate D2E/DX2                !
 ! D38   D(11,1,5,7)           -82.2811         estimate D2E/DX2                !
 ! D39   D(1,4,22,34)          -76.1305         estimate D2E/DX2                !
 ! D40   D(32,4,22,34)        -168.8567         estimate D2E/DX2                !
 ! D41   D(1,5,10,35)           93.7292         estimate D2E/DX2                !
 ! D42   D(6,5,10,35)         -173.1545         estimate D2E/DX2                !
 ! D43   D(6,5,12,31)         -164.8645         estimate D2E/DX2                !
 ! D44   D(7,5,12,31)          -70.0773         estimate D2E/DX2                !
 ! D45   D(2,1,11,14)           -9.1765         estimate D2E/DX2                !
 ! D46   D(2,1,11,31)           83.7377         estimate D2E/DX2                !
 ! D47   D(3,1,11,14)          168.6233         estimate D2E/DX2                !
 ! D48   D(3,1,11,31)          -98.4624         estimate D2E/DX2                !
 ! D49   D(5,1,11,14)           74.0354         estimate D2E/DX2                !
 ! D50   D(5,1,11,31)          166.9496         estimate D2E/DX2                !
 ! D51   D(12,1,11,14)        -102.8306         estimate D2E/DX2                !
 ! D52   D(12,1,11,31)          -9.9164         estimate D2E/DX2                !
 ! D53   D(2,1,12,31)          -70.5357         estimate D2E/DX2                !
 ! D54   D(3,1,12,31)          112.5772         estimate D2E/DX2                !
 ! D55   D(4,1,12,31)         -162.6143         estimate D2E/DX2                !
 ! D56   D(11,1,12,31)          12.4646         estimate D2E/DX2                !
 ! D57   D(1,2,7,5)             -0.0152         estimate D2E/DX2                !
 ! D58   D(1,2,7,9)             82.2767         estimate D2E/DX2                !
 ! D59   D(1,2,7,10)          -176.9842         estimate D2E/DX2                !
 ! D60   D(1,2,7,13)           -92.3489         estimate D2E/DX2                !
 ! D61   D(14,2,7,5)            94.9751         estimate D2E/DX2                !
 ! D62   D(14,2,7,9)           177.2669         estimate D2E/DX2                !
 ! D63   D(14,2,7,10)          -81.994          estimate D2E/DX2                !
 ! D64   D(14,2,7,13)            2.6414         estimate D2E/DX2                !
 ! D65   D(1,2,14,11)           -8.773          estimate D2E/DX2                !
 ! D66   D(1,2,14,13)           92.9787         estimate D2E/DX2                !
 ! D67   D(1,2,14,17)          178.3            estimate D2E/DX2                !
 ! D68   D(1,2,14,24)          -90.1781         estimate D2E/DX2                !
 ! D69   D(7,2,14,11)         -104.3587         estimate D2E/DX2                !
 ! D70   D(7,2,14,13)           -2.607          estimate D2E/DX2                !
 ! D71   D(7,2,14,17)           82.7143         estimate D2E/DX2                !
 ! D72   D(7,2,14,24)          174.2362         estimate D2E/DX2                !
 ! D73   D(1,3,32,4)             6.5698         estimate D2E/DX2                !
 ! D74   D(1,3,32,8)            86.8321         estimate D2E/DX2                !
 ! D75   D(1,3,32,20)           45.8063         estimate D2E/DX2                !
 ! D76   D(1,3,32,26)         -133.3379         estimate D2E/DX2                !
 ! D77   D(1,4,6,5)             -2.6378         estimate D2E/DX2                !
 ! D78   D(1,4,6,8)             89.3606         estimate D2E/DX2                !
 ! D79   D(1,4,6,9)            -83.6399         estimate D2E/DX2                !
 ! D80   D(1,4,6,18)           175.8608         estimate D2E/DX2                !
 ! D81   D(32,4,6,5)           -95.7542         estimate D2E/DX2                !
 ! D82   D(32,4,6,8)            -3.7558         estimate D2E/DX2                !
 ! D83   D(32,4,6,9)          -176.7563         estimate D2E/DX2                !
 ! D84   D(32,4,6,18)           82.7443         estimate D2E/DX2                !
 ! D85   D(1,4,32,3)            -6.3872         estimate D2E/DX2                !
 ! D86   D(1,4,32,8)           -91.9297         estimate D2E/DX2                !
 ! D87   D(1,4,32,20)         -174.4758         estimate D2E/DX2                !
 ! D88   D(1,4,32,26)           87.8713         estimate D2E/DX2                !
 ! D89   D(6,4,32,3)            89.1635         estimate D2E/DX2                !
 ! D90   D(6,4,32,8)             3.6209         estimate D2E/DX2                !
 ! D91   D(6,4,32,20)          -78.9251         estimate D2E/DX2                !
 ! D92   D(6,4,32,26)         -176.5781         estimate D2E/DX2                !
 ! D93   D(1,5,6,4)              2.5878         estimate D2E/DX2                !
 ! D94   D(1,5,6,8)            -82.7701         estimate D2E/DX2                !
 ! D95   D(1,5,6,9)            104.3962         estimate D2E/DX2                !
 ! D96   D(1,5,6,22)          -174.2214         estimate D2E/DX2                !
 ! D97   D(7,5,6,4)            -92.9773         estimate D2E/DX2                !
 ! D98   D(7,5,6,8)           -178.3351         estimate D2E/DX2                !
 ! D99   D(7,5,6,9)              8.8311         estimate D2E/DX2                !
 ! D100  D(7,5,6,22)            90.2135         estimate D2E/DX2                !
 ! D101  D(1,5,7,2)              0.0153         estimate D2E/DX2                !
 ! D102  D(1,5,7,9)           -102.0082         estimate D2E/DX2                !
 ! D103  D(1,5,7,13)            86.8948         estimate D2E/DX2                !
 ! D104  D(1,5,7,15)           177.2807         estimate D2E/DX2                !
 ! D105  D(6,5,7,2)             93.1319         estimate D2E/DX2                !
 ! D106  D(6,5,7,9)             -8.8916         estimate D2E/DX2                !
 ! D107  D(6,5,7,13)          -179.9885         estimate D2E/DX2                !
 ! D108  D(6,5,7,15)           -89.6027         estimate D2E/DX2                !
 ! D109  D(1,5,18,33)          -89.6305         estimate D2E/DX2                !
 ! D110  D(7,5,18,33)          174.806          estimate D2E/DX2                !
 ! D111  D(4,6,8,32)             3.8924         estimate D2E/DX2                !
 ! D112  D(4,6,8,33)           100.8475         estimate D2E/DX2                !
 ! D113  D(5,6,8,32)            88.6314         estimate D2E/DX2                !
 ! D114  D(5,6,8,33)          -174.4135         estimate D2E/DX2                !
 ! D115  D(18,6,8,32)          -90.6713         estimate D2E/DX2                !
 ! D116  D(18,6,8,33)            6.2838         estimate D2E/DX2                !
 ! D117  D(22,6,8,32)          177.9256         estimate D2E/DX2                !
 ! D118  D(22,6,8,33)          -85.1194         estimate D2E/DX2                !
 ! D119  D(32,8,9,7)            78.8217         estimate D2E/DX2                !
 ! D120  D(32,8,9,34)          171.5765         estimate D2E/DX2                !
 ! D121  D(33,8,9,7)           176.615          estimate D2E/DX2                !
 ! D122  D(33,8,9,34)          -90.6303         estimate D2E/DX2                !
 ! D123  D(4,6,9,7)             74.0969         estimate D2E/DX2                !
 ! D124  D(4,6,9,34)           167.367          estimate D2E/DX2                !
 ! D125  D(5,6,9,7)             -9.1114         estimate D2E/DX2                !
 ! D126  D(5,6,9,34)            84.1587         estimate D2E/DX2                !
 ! D127  D(18,6,9,7)           170.3854         estimate D2E/DX2                !
 ! D128  D(18,6,9,34)          -96.3446         estimate D2E/DX2                !
 ! D129  D(22,6,9,7)           -99.5448         estimate D2E/DX2                !
 ! D130  D(22,6,9,34)           -6.2748         estimate D2E/DX2                !
 ! D131  D(4,6,18,33)          -92.2056         estimate D2E/DX2                !
 ! D132  D(8,6,18,33)           -6.9422         estimate D2E/DX2                !
 ! D133  D(9,6,18,33)          165.9384         estimate D2E/DX2                !
 ! D134  D(22,6,18,33)          84.4504         estimate D2E/DX2                !
 ! D135  D(5,6,22,34)          -74.2758         estimate D2E/DX2                !
 ! D136  D(8,6,22,34)         -165.8422         estimate D2E/DX2                !
 ! D137  D(9,6,22,34)            7.9306         estimate D2E/DX2                !
 ! D138  D(18,6,22,34)         107.2653         estimate D2E/DX2                !
 ! D139  D(2,7,9,6)            -73.9994         estimate D2E/DX2                !
 ! D140  D(2,7,9,34)          -166.9276         estimate D2E/DX2                !
 ! D141  D(5,7,9,6)              9.2373         estimate D2E/DX2                !
 ! D142  D(5,7,9,34)           -83.6908         estimate D2E/DX2                !
 ! D143  D(10,7,9,6)          -168.6739         estimate D2E/DX2                !
 ! D144  D(10,7,9,34)           98.398          estimate D2E/DX2                !
 ! D145  D(15,7,9,6)           102.8385         estimate D2E/DX2                !
 ! D146  D(15,7,9,34)            9.9103         estimate D2E/DX2                !
 ! D147  D(6,9,13,14)          -77.6863         estimate D2E/DX2                !
 ! D148  D(6,9,13,35)         -174.6013         estimate D2E/DX2                !
 ! D149  D(34,9,13,14)        -169.977          estimate D2E/DX2                !
 ! D150  D(34,9,13,35)          93.108          estimate D2E/DX2                !
 ! D151  D(2,7,10,35)           93.8942         estimate D2E/DX2                !
 ! D152  D(9,7,10,35)         -164.1736         estimate D2E/DX2                !
 ! D153  D(13,7,10,35)           7.0587         estimate D2E/DX2                !
 ! D154  D(15,7,10,35)         -83.2305         estimate D2E/DX2                !
 ! D155  D(2,7,13,14)           -2.7185         estimate D2E/DX2                !
 ! D156  D(2,7,13,35)          -99.0315         estimate D2E/DX2                !
 ! D157  D(5,7,13,14)          -87.2855         estimate D2E/DX2                !
 ! D158  D(5,7,13,35)          176.4014         estimate D2E/DX2                !
 ! D159  D(10,7,13,14)          90.1244         estimate D2E/DX2                !
 ! D160  D(10,7,13,35)          -6.1887         estimate D2E/DX2                !
 ! D161  D(15,7,13,14)        -179.8274         estimate D2E/DX2                !
 ! D162  D(15,7,13,35)          83.8596         estimate D2E/DX2                !
 ! D163  D(5,7,15,34)           70.5717         estimate D2E/DX2                !
 ! D164  D(9,7,15,34)          -12.4625         estimate D2E/DX2                !
 ! D165  D(10,7,15,34)        -112.584          estimate D2E/DX2                !
 ! D166  D(13,7,15,34)         162.6372         estimate D2E/DX2                !
 ! D167  D(6,8,32,3)           -85.6836         estimate D2E/DX2                !
 ! D168  D(6,8,32,4)            -3.683          estimate D2E/DX2                !
 ! D169  D(6,8,32,20)           81.8794         estimate D2E/DX2                !
 ! D170  D(6,8,32,26)          176.5144         estimate D2E/DX2                !
 ! D171  D(33,8,32,3)         -178.8906         estimate D2E/DX2                !
 ! D172  D(33,8,32,4)          -96.89           estimate D2E/DX2                !
 ! D173  D(33,8,32,20)         -11.3276         estimate D2E/DX2                !
 ! D174  D(33,8,32,26)          83.3074         estimate D2E/DX2                !
 ! D175  D(6,8,33,18)           -6.0839         estimate D2E/DX2                !
 ! D176  D(6,8,33,20)          -88.8236         estimate D2E/DX2                !
 ! D177  D(6,8,33,21)          114.3304         estimate D2E/DX2                !
 ! D178  D(6,8,33,27)         -164.4359         estimate D2E/DX2                !
 ! D179  D(32,8,33,18)          92.9527         estimate D2E/DX2                !
 ! D180  D(32,8,33,20)          10.213          estimate D2E/DX2                !
 ! D181  D(32,8,33,21)        -146.633          estimate D2E/DX2                !
 ! D182  D(32,8,33,27)         -65.3993         estimate D2E/DX2                !
 ! D183  D(6,9,34,15)         -109.7667         estimate D2E/DX2                !
 ! D184  D(6,9,34,22)            7.2583         estimate D2E/DX2                !
 ! D185  D(6,9,34,28)          128.9473         estimate D2E/DX2                !
 ! D186  D(7,9,34,15)          -11.4182         estimate D2E/DX2                !
 ! D187  D(7,9,34,22)          105.6068         estimate D2E/DX2                !
 ! D188  D(7,9,34,28)         -132.7042         estimate D2E/DX2                !
 ! D189  D(7,10,35,13)          -6.539          estimate D2E/DX2                !
 ! D190  D(7,10,35,17)         -86.7934         estimate D2E/DX2                !
 ! D191  D(7,10,35,19)         -45.7815         estimate D2E/DX2                !
 ! D192  D(7,10,35,29)         133.3702         estimate D2E/DX2                !
 ! D193  D(1,11,14,2)            9.052          estimate D2E/DX2                !
 ! D194  D(1,11,14,13)         -74.1172         estimate D2E/DX2                !
 ! D195  D(1,11,14,16)        -170.3437         estimate D2E/DX2                !
 ! D196  D(1,11,14,24)          99.484          estimate D2E/DX2                !
 ! D197  D(31,11,14,2)         -84.2227         estimate D2E/DX2                !
 ! D198  D(31,11,14,13)       -167.3919         estimate D2E/DX2                !
 ! D199  D(31,11,14,16)         96.3816         estimate D2E/DX2                !
 ! D200  D(31,11,14,24)          6.2094         estimate D2E/DX2                !
 ! D201  D(1,11,17,35)         -78.8527         estimate D2E/DX2                !
 ! D202  D(1,11,17,36)        -176.62           estimate D2E/DX2                !
 ! D203  D(31,11,17,35)       -171.6156         estimate D2E/DX2                !
 ! D204  D(31,11,17,36)         90.6171         estimate D2E/DX2                !
 ! D205  D(1,11,31,12)          11.4209         estimate D2E/DX2                !
 ! D206  D(1,11,31,24)        -105.56           estimate D2E/DX2                !
 ! D207  D(1,11,31,25)         132.7234         estimate D2E/DX2                !
 ! D208  D(14,11,31,12)        109.8018         estimate D2E/DX2                !
 ! D209  D(14,11,31,24)         -7.1791         estimate D2E/DX2                !
 ! D210  D(14,11,31,25)       -128.8957         estimate D2E/DX2                !
 ! D211  D(1,12,31,11)         -11.0961         estimate D2E/DX2                !
 ! D212  D(1,12,31,24)          66.1034         estimate D2E/DX2                !
 ! D213  D(1,12,31,25)        -120.5227         estimate D2E/DX2                !
 ! D214  D(7,13,14,2)            2.6561         estimate D2E/DX2                !
 ! D215  D(7,13,14,11)          83.634          estimate D2E/DX2                !
 ! D216  D(7,13,14,16)        -175.916          estimate D2E/DX2                !
 ! D217  D(7,13,14,17)         -89.3753         estimate D2E/DX2                !
 ! D218  D(35,13,14,2)          95.8062         estimate D2E/DX2                !
 ! D219  D(35,13,14,11)        176.7841         estimate D2E/DX2                !
 ! D220  D(35,13,14,16)        -82.7659         estimate D2E/DX2                !
 ! D221  D(35,13,14,17)          3.7747         estimate D2E/DX2                !
 ! D222  D(7,13,24,31)          76.2093         estimate D2E/DX2                !
 ! D223  D(35,13,24,31)        168.9665         estimate D2E/DX2                !
 ! D224  D(7,13,35,10)           6.3576         estimate D2E/DX2                !
 ! D225  D(7,13,35,17)          91.9199         estimate D2E/DX2                !
 ! D226  D(7,13,35,19)         174.4583         estimate D2E/DX2                !
 ! D227  D(7,13,35,29)         -87.8871         estimate D2E/DX2                !
 ! D228  D(14,13,35,10)        -89.2            estimate D2E/DX2                !
 ! D229  D(14,13,35,17)         -3.6378         estimate D2E/DX2                !
 ! D230  D(14,13,35,19)         78.9007         estimate D2E/DX2                !
 ! D231  D(14,13,35,29)        176.5553         estimate D2E/DX2                !
 ! D232  D(11,14,16,36)       -166.0006         estimate D2E/DX2                !
 ! D233  D(13,14,16,36)         92.2211         estimate D2E/DX2                !
 ! D234  D(17,14,16,36)          6.9846         estimate D2E/DX2                !
 ! D235  D(24,14,16,36)        -84.4751         estimate D2E/DX2                !
 ! D236  D(2,14,17,35)         -88.6012         estimate D2E/DX2                !
 ! D237  D(2,14,17,36)         174.4639         estimate D2E/DX2                !
 ! D238  D(13,14,17,35)         -3.9092         estimate D2E/DX2                !
 ! D239  D(13,14,17,36)       -100.8441         estimate D2E/DX2                !
 ! D240  D(16,14,17,35)         90.6117         estimate D2E/DX2                !
 ! D241  D(16,14,17,36)         -6.3232         estimate D2E/DX2                !
 ! D242  D(24,14,17,35)       -177.8963         estimate D2E/DX2                !
 ! D243  D(24,14,17,36)         85.1688         estimate D2E/DX2                !
 ! D244  D(2,14,24,31)          74.3403         estimate D2E/DX2                !
 ! D245  D(11,14,24,31)         -7.8439         estimate D2E/DX2                !
 ! D246  D(16,14,24,31)       -107.1319         estimate D2E/DX2                !
 ! D247  D(17,14,24,31)        165.932          estimate D2E/DX2                !
 ! D248  D(7,15,34,9)           11.0895         estimate D2E/DX2                !
 ! D249  D(7,15,34,22)         -66.0683         estimate D2E/DX2                !
 ! D250  D(7,15,34,28)         120.4933         estimate D2E/DX2                !
 ! D251  D(14,16,36,17)         -6.4895         estimate D2E/DX2                !
 ! D252  D(14,16,36,19)        -82.0633         estimate D2E/DX2                !
 ! D253  D(14,16,36,23)       -177.9407         estimate D2E/DX2                !
 ! D254  D(14,16,36,30)         88.072          estimate D2E/DX2                !
 ! D255  D(14,17,35,10)         85.7064         estimate D2E/DX2                !
 ! D256  D(14,17,35,13)          3.7018         estimate D2E/DX2                !
 ! D257  D(14,17,35,19)        -81.8739         estimate D2E/DX2                !
 ! D258  D(14,17,35,29)       -176.4897         estimate D2E/DX2                !
 ! D259  D(36,17,35,10)        178.8842         estimate D2E/DX2                !
 ! D260  D(36,17,35,13)         96.8796         estimate D2E/DX2                !
 ! D261  D(36,17,35,19)         11.3038         estimate D2E/DX2                !
 ! D262  D(36,17,35,29)        -83.3119         estimate D2E/DX2                !
 ! D263  D(14,17,36,16)          6.1203         estimate D2E/DX2                !
 ! D264  D(14,17,36,19)         88.8475         estimate D2E/DX2                !
 ! D265  D(14,17,36,23)        164.4922         estimate D2E/DX2                !
 ! D266  D(14,17,36,30)       -114.2485         estimate D2E/DX2                !
 ! D267  D(35,17,36,16)        -92.9209         estimate D2E/DX2                !
 ! D268  D(35,17,36,19)        -10.1937         estimate D2E/DX2                !
 ! D269  D(35,17,36,23)         65.4509         estimate D2E/DX2                !
 ! D270  D(35,17,36,30)        146.7102         estimate D2E/DX2                !
 ! D271  D(6,18,33,8)            6.4513         estimate D2E/DX2                !
 ! D272  D(6,18,33,20)          82.0093         estimate D2E/DX2                !
 ! D273  D(6,18,33,21)         -88.0915         estimate D2E/DX2                !
 ! D274  D(6,18,33,27)         177.9219         estimate D2E/DX2                !
 ! D275  D(36,19,35,10)        -53.1756         estimate D2E/DX2                !
 ! D276  D(36,19,35,13)        -92.0946         estimate D2E/DX2                !
 ! D277  D(36,19,35,17)        -11.8969         estimate D2E/DX2                !
 ! D278  D(36,19,35,29)        127.6721         estimate D2E/DX2                !
 ! D279  D(35,19,36,16)         93.9124         estimate D2E/DX2                !
 ! D280  D(35,19,36,17)         11.787          estimate D2E/DX2                !
 ! D281  D(35,19,36,23)       -147.9484         estimate D2E/DX2                !
 ! D282  D(35,19,36,30)        -64.5387         estimate D2E/DX2                !
 ! D283  D(33,20,32,3)          53.2077         estimate D2E/DX2                !
 ! D284  D(33,20,32,4)          92.1208         estimate D2E/DX2                !
 ! D285  D(33,20,32,8)          11.9175         estimate D2E/DX2                !
 ! D286  D(33,20,32,26)       -127.6476         estimate D2E/DX2                !
 ! D287  D(32,20,33,8)         -11.8065         estimate D2E/DX2                !
 ! D288  D(32,20,33,18)        -93.9181         estimate D2E/DX2                !
 ! D289  D(32,20,33,21)         64.5194         estimate D2E/DX2                !
 ! D290  D(32,20,33,27)        147.988          estimate D2E/DX2                !
 ! D291  D(6,22,34,9)           -7.1196         estimate D2E/DX2                !
 ! D292  D(6,22,34,15)          69.3836         estimate D2E/DX2                !
 ! D293  D(6,22,34,28)        -117.1793         estimate D2E/DX2                !
 ! D294  D(14,24,31,11)          7.0451         estimate D2E/DX2                !
 ! D295  D(14,24,31,12)        -69.4826         estimate D2E/DX2                !
 ! D296  D(14,24,31,25)        117.1449         estimate D2E/DX2                !
 --------------------------------------------------------------------------------
 Trust Radius=3.00D-01 FncErr=1.00D-07 GrdErr=1.00D-06 EigMax=2.50D+02 EigMin=1.00D-04
 Number of steps in this run=    216 maximum allowed number of steps=    216.
 GradGradGradGradGradGradGradGradGradGradGradGradGradGradGradGradGradGrad

                          Input orientation:                          
 ---------------------------------------------------------------------
 Center     Atomic      Atomic             Coordinates (Angstroms)
 Number     Number       Type             X           Y           Z
 ---------------------------------------------------------------------
      1         12           0       -0.604096    1.748352    0.266280
      2         17           0        1.031454    0.530195   -1.246824
      3         17           0       -2.298409    2.795786    1.691061
      4         17           0       -2.494736    1.303798   -1.269995
      5         17           0       -1.031296   -0.529867    1.245440
      6         12           0       -3.073192   -0.935288   -0.280985
      7         12           0        0.603772   -1.747219   -0.268320
      8         17           0       -4.559241    0.343554    1.250863
      9         17           0       -1.451856   -2.417574   -1.480441
     10         17           0        2.298440   -2.797585   -1.690855
     11         17           0        1.451995    2.417497    1.478773
     12         17           0       -0.167476    4.038539   -0.908581
     13         17           0        2.494535   -1.303052    1.268146
     14         12           0        3.074246    0.936437    0.278425
     15         17           0        0.167596   -4.037134    0.908758
     16         17           0        4.988769    1.251684    1.663438
     17         17           0        4.559842   -0.344276   -1.251766
     18         17           0       -4.989641   -1.251599   -1.663711
     19         17           0        5.813827   -1.950644    1.273277
     20         17           0       -5.814545    1.951062   -1.272353
     21         17           0       -7.868508   -1.585702    1.364837
     22         17           0       -3.550223   -3.162113    1.006186
     23         17           0        8.940258    0.201929    0.974859
     24         17           0        3.549549    3.162447   -1.008797
     25         17           0        2.429228    6.470720    0.942505
     26         17           0       -4.971561    4.896298    0.507301
     27         17           0       -8.940453   -0.204322   -0.974509
     28         17           0       -2.427385   -6.471242   -0.941297
     29         17           0        4.970437   -4.897122   -0.504026
     30         17           0        7.868793    1.586112   -1.363055
     31         13           0        1.940472    4.546706   -0.238760
     32         13           0       -4.212343    2.731249    0.238507
     33         13           0       -6.766840   -0.288430   -0.197057
     34         13           0       -1.939987   -4.546428    0.239226
     35         13           0        4.211667   -2.731633   -0.237524
     36         13           0        6.766644    0.287753    0.197596
 ---------------------------------------------------------------------
                    Distance matrix (angstroms):
                    1          2          3          4          5
     1  Mg   0.000000
     2  Cl   2.539373   0.000000
     3  Cl   2.449044   4.985184   0.000000
     4  Cl   2.476346   3.610127   3.321509   0.000000
     5  Cl   2.516254   3.404416   3.586659   3.439680   0.000000
     6  Mg   3.687527   4.464147   4.290707   2.515205   2.581410
     7  Mg   3.736811   2.515352   5.735915   4.462377   2.539067
     8  Cl   4.311152   6.126104   3.364309   3.396907   3.634459
     9  Cl   4.596158   3.861444   6.160698   3.870465   3.342265
    10  Cl   5.737651   3.588389   7.990881   6.322421   4.985129
    11  Cl   2.478993   3.341802   3.775407   4.936875   3.861105
    12  Cl   2.610726   3.722945   3.583776   3.609095   5.124093
    13  Cl   4.462770   3.438964   6.320731   6.175002   3.609683
    14  Mg   3.766902   2.581553   5.858169   5.791901   4.465494
    15  Cl   5.871979   5.123795   7.306297   6.352994   3.721776
    16  Cl   5.786093   4.964928   7.449025   8.038071   6.292045
    17  Cl   5.774930   3.635140   8.096655   7.244553   6.126280
    18  Cl   5.653103   6.293025   5.905806   3.592996   4.965134
    19  Cl   7.475717   5.947820   9.408056   9.278569   6.991072
    20  Cl   5.436659   6.991939   4.675317   3.382320   5.947584
    21  Cl   8.068112   9.513523   7.094354   6.645974   6.919286
    22  Cl   5.774062   6.300870   6.126390   5.122442   3.651158
    23  Cl   9.694751   8.221485  11.556326  11.705237  10.002031
    24  Cl   4.569273   3.650508   6.451534   6.328995   6.300707
    25  Cl   5.653238   6.483577   6.034569   7.472460   7.815063
    26  Cl   5.389101   7.627319   3.599886   4.711634   6.746392
    27  Cl   8.651436  10.002630   7.760326   6.626387   8.221248
    28  Cl   8.505548   7.815180   9.634508   7.782276   6.483118
    29  Cl   8.708107   6.747082  10.809041   9.734831   7.625900
    30  Cl   8.629652   6.919369  10.684706  10.367791   9.512791
    31  Al   3.815845   4.239678   4.975745   5.590257   6.066782
    32  Al   3.739827   5.877776   2.403585   2.695064   4.665603
    33  Al   6.507117   7.911103   5.748413   4.683723   5.919084
    34  Al   6.435029   6.067117   7.492957   6.067177   4.239216
    35  Al   6.596640   4.666044   8.755164   7.894716   5.876701
    36  Al   7.514378   5.919251   9.523437   9.431825   7.910395
                    6          7          8          9         10
     6  Mg   0.000000
     7  Mg   3.765562   0.000000
     8  Cl   2.488039   5.773729   0.000000
     9  Cl   2.502918   2.478754   4.973901   0.000000
    10  Cl   5.857501   2.449240   8.096187   3.775368   0.000000
    11  Cl   5.900443   4.595288   6.363029   6.369239   6.161176
    12  Cl   5.794482   5.871946   6.132187   6.607424   7.309260
    13  Cl   5.790910   2.476489   7.243436   4.936688   3.320808
    14  Mg   6.450371   3.688385   7.717984   5.901576   4.292186
    15  Cl   4.641082   2.611412   6.453716   3.309663   3.582592
    16  Cl   8.576645   5.652726   9.599969   8.051651   5.906414
    17  Cl   7.717183   4.311137   9.481241   6.363283   3.365333
    18  Cl   2.384274   5.786106   3.350298   3.729478   7.450298
    19  Cl   9.078865   5.437148  10.623765   7.784031   4.675610
    20  Cl   4.102297   7.475303   3.244455   6.177486   9.409852
    21  Cl   5.111441   8.629764   3.832266   7.068313  10.685165
    22  Cl   2.615935   4.569679   3.656185   3.337783   6.450874
    23  Cl  12.132328   8.651108  13.503063  10.994832   7.759952
    24  Cl   7.821882   5.773277   8.877201   7.508204   6.128006
    25  Cl   9.307121   8.504876   9.299244   9.996762   9.636035
    26  Cl   6.183251   8.707597   4.631455   8.356564  10.811135
    27  Cl   5.953154   9.693888   4.944438   7.825186  11.556422
    28  Cl   5.612474   5.653070   7.469392   4.204112   6.032497
    29  Cl   8.969161   5.389361  11.016310   6.953229   3.599471
    30  Cl  11.280752   8.067841  12.760586  10.144840   7.095990
    31  Al   7.429056   6.434371   7.882368   7.845435   7.495020
    32  Al   3.874407   6.596098   2.616542   6.089782   8.756754
    33  Al   3.750801   7.513925   2.714658   5.867656   9.524001
    34  Al   3.820354   3.816266   5.638779   2.779846   4.974729
    35  Al   7.503194   3.739910   9.412805   5.806804   2.403530
    36  Al   9.927096   6.506856  11.374891   8.813532   5.748948
                   11         12         13         14         15
    11  Cl   0.000000
    12  Cl   3.309067   0.000000
    13  Cl   3.869591   6.352719   0.000000
    14  Mg   2.503212   4.641205   2.516133   0.000000
    15  Cl   6.605820   8.284412   3.608186   5.795027   0.000000
    16  Cl   3.728537   6.400680   3.592233   2.383913   7.196169
    17  Cl   4.974128   6.455570   3.396278   2.487711   6.131630
    18  Cl   8.051841   7.197851   8.038117   8.578209   6.401085
    19  Cl   6.176444   8.741098   3.381878   4.102471   6.030443
    20  Cl   7.783885   6.031524   9.278157   9.079922   8.740809
    21  Cl  10.144474   9.803388  10.367348  11.282081   8.414066
    22  Cl   7.508500   8.182830   6.329600   7.823767   3.820646
    23  Cl   7.825392  10.060703   6.625581   5.952698   9.743388
    24  Cl   3.338066   3.820190   5.122324   2.614952   8.182212
    25  Cl   4.203711   4.010598   7.780863   5.611180  10.748540
    26  Cl   6.953437   5.081309   9.734137   8.970390  10.313986
    27  Cl  10.995249   9.745324  11.704515  12.133597  10.059508
    28  Cl   9.995800  10.750058   7.471086   9.307490   4.010176
    29  Cl   8.355512  10.315419   4.710417   6.183703   5.079648
    30  Cl   7.067000   8.414426   6.644782   5.109228   9.802574
    31  Al   2.778860   2.269436   6.066088   3.819289   8.839807
    32  Al   5.807015   4.402927   7.894172   7.504487   8.089753
    33  Al   8.813609   7.923417   9.431296   9.928412   7.960026
    34  Al   7.844633   8.840866   5.589557   7.430066   2.269264
    35  Al   6.088925   8.090886   2.693776   3.874876   4.401455
    36  Al   5.867088   7.960782   4.682697   3.749817   7.921984
                   16         17         18         19         20
    16  Cl   0.000000
    17  Cl   3.351042   0.000000
    18  Cl  10.812262   9.601331   0.000000
    19  Cl   3.329842   3.244802  11.217374   0.000000
    20  Cl  11.216933  10.625296   3.330265  12.526874   0.000000
    21  Cl  13.170023  12.761334   4.191850  13.687507   4.866440
    22  Cl   9.634727   8.877596   3.584737   9.445868   6.038498
    23  Cl   4.146130   4.944112  14.251908   3.807518  15.027097
    24  Cl   3.586532   3.657435   9.634858   6.039745   9.445802
    25  Cl   5.857416   7.469840  11.021170   9.082086   9.658815
    26  Cl  10.669022  11.018420   6.519989  12.798122   3.542909
    27  Cl  14.251384  13.503867   4.144961  15.026342   3.808634
    28  Cl  11.019418   9.298250   5.859327   9.657004   9.083923
    29  Cl   6.519667   4.632075  10.669483   3.542858  12.798586
    30  Cl   4.191186   3.832484  13.171269   4.866392  13.688504
    31  Al   4.875207   5.639946   9.147529   7.713928   8.242935
    32  Al   9.427619   9.414404   4.481708  11.113728   2.336331
    33  Al  12.001156  11.375819   2.497440  12.774898   2.660536
    34  Al   9.146264   7.882190   4.876213   8.241904   7.714561
    35  Al   4.481558   2.617133   9.428074   2.336532  11.114110
    36  Al   2.497738   2.714790  12.001846   2.659957  12.775510
                   21         22         23         24         25
    21  Cl   0.000000
    22  Cl   4.610997   0.000000
    23  Cl  16.908055  12.935605   0.000000
    24  Cl  12.591707   9.719412   6.462144   0.000000
    25  Cl  13.081577  11.337961   9.038379   4.000921   0.000000
    26  Cl   7.151503   8.197992  14.689943   8.826897   7.578911
    27  Cl   2.920585   6.459587  17.991245  12.935860  13.322942
    28  Cl   7.667632   4.000473  13.320142  11.337383  13.950978
    29  Cl  13.390171   8.825681   6.629246   8.199413  11.737889
    30  Cl  16.283870  12.591778   2.920589   4.611529   7.665760
    31  Al  11.678786   9.545864   8.327482   2.257932   2.310000
    32  Al   5.768208   5.979921  13.413821   7.873288   7.654393
    33  Al   2.310000   4.477999  15.758387  10.908499  11.469629
    34  Al   6.721627   2.257746  11.894023   9.545644  11.872750
    35  Al  12.239745   7.872678   5.695193   5.981090   9.447373
    36  Al  14.800674  10.908398   2.310000   4.479838   7.589278
                   26         27         28         29         30
    26  Cl   0.000000
    27  Cl   6.630550   0.000000
    28  Cl  11.738494   9.038553   0.000000
    29  Cl  13.992041  14.688656   7.576070   0.000000
    30  Cl  13.391425  16.908796  13.080906   7.153371   0.000000
    31  Al   6.960964  11.895719  11.872949   9.921540   6.721172
    32  Al   2.310000   5.695964   9.447955  11.961056  12.240514
    33  Al   5.531777   2.310000   7.590252  12.613404  14.801189
    34  Al   9.921058   8.326678   2.310000   6.959122  11.678506
    35  Al  11.961261  13.413005   7.652254   2.310000   5.769255
    36  Al  12.614280  15.758454  11.467836   5.531868   2.310000
                   31         32         33         34         35
    31  Al   0.000000
    32  Al   6.432791   0.000000
    33  Al   9.959797   3.979150   0.000000
    34  Al   9.898056   7.624184   6.451310   0.000000
    35  Al   7.624470  10.051549  11.247155   6.431455   0.000000
    36  Al   6.451436  11.247689  13.551492   9.958738   3.979187
                   36
    36  Al   0.000000
 Stoichiometry    Al6Cl26Mg4
 Framework group  C1[X(Al6Cl26Mg4)]
 Deg. of freedom   102
 Full point group                 C1      NOp   1
 Largest Abelian subgroup         C1      NOp   1
 Largest concise Abelian subgroup C1      NOp   1
                         Standard orientation:                         
 ---------------------------------------------------------------------
 Center     Atomic      Atomic             Coordinates (Angstroms)
 Number     Number       Type             X           Y           Z
 ---------------------------------------------------------------------
      1         12           0       -0.557669   -1.773731   -0.188809
      2         17           0        1.024133   -0.443066    1.286199
      3         17           0       -2.203699   -2.931072   -1.584861
      4         17           0       -2.482398   -1.301646    1.296063
      5         17           0       -1.023961    0.442708   -1.284942
      6         12           0       -3.098789    0.871494    0.189815
      7         12           0        0.557368    1.772589    0.190753
      8         17           0       -4.529399   -0.516980   -1.298751
      9         17           0       -1.532596    2.450231    1.338391
     10         17           0        2.203718    2.932756    1.584424
     11         17           0        1.532734   -2.450171   -1.336871
     12         17           0       -0.084757   -3.992334    1.103494
     13         17           0        2.482214    1.300884   -1.294326
     14         12           0        3.099857   -0.872592   -0.187331
     15         17           0        0.084941    3.990823   -1.103744
     16         17           0        5.042973   -1.207589   -1.527151
     17         17           0        4.529996    0.517658    1.299483
     18         17           0       -5.043819    1.207394    1.527271
     19         17           0        5.784673    2.029403   -1.282988
     20         17           0       -5.785338   -2.029985    1.281931
     21         17           0       -7.881819    1.321922   -1.555624
     22         17           0       -3.608806    3.020348   -1.212122
     23         17           0        8.956788   -0.028004   -0.833592
     24         17           0        3.608127   -3.020673    1.214592
     25         17           0        2.598418   -6.446959   -0.587745
     26         17           0       -4.843970   -5.036812   -0.338262
     27         17           0       -8.957007    0.030269    0.832979
     28         17           0       -2.596541    6.447365    0.586395
     29         17           0        4.842906    5.037345    0.334790
     30         17           0        7.882170   -1.322513    1.553725
     31         13           0        2.045071   -4.480266    0.490227
     32         13           0       -4.141271   -2.843098   -0.165250
     33         13           0       -6.774064    0.130097    0.084050
     34         13           0       -2.044544    4.479875   -0.490816
     35         13           0        4.140630    2.843314    0.164096
     36         13           0        6.773888   -0.129554   -0.084769
 ---------------------------------------------------------------------
 Rotational constants (GHZ):           0.0450763           0.0201902           0.0150991
 Standard basis: TZVP (5D, 7F)
 There are   792 symmetry adapted cartesian basis functions of A   symmetry.
 There are   760 symmetry adapted basis functions of A   symmetry.
   760 basis functions,  1644 primitive gaussians,   792 cartesian basis functions
   284 alpha electrons      284 beta electrons
       nuclear repulsion energy     14496.4968078107 Hartrees.
 NAtoms=   36 NActive=   36 NUniq=   36 SFac= 1.00D+00 NAtFMM=   60 NAOKFM=F Big=F
 Integral buffers will be    131072 words long.
 Raffenetti 2 integral format.
 Two-electron integral symmetry is turned on.
 One-electron integrals computed using PRISM.
 NBasis=   760 RedAO= T EigKep=  4.37D-03  NBF=   760
 NBsUse=   760 1.00D-06 EigRej= -1.00D+00 NBFU=   760
 ExpMin= 3.69D-02 ExpMax= 6.95D+04 ExpMxC= 2.37D+03 IAcc=3 IRadAn=         5 AccDes= 0.00D+00
 Harris functional with IExCor= 1009 and IRadAn=       5 diagonalized for initial guess.
 HarFok:  IExCor= 1009 AccDes= 0.00D+00 IRadAn=         5 IDoV= 1 UseB2=F ITyADJ=14
 ICtDFT=  3500011 ScaDFX=  1.000000  1.000000  1.000000  1.000000
 FoFCou: FMM=F IPFlag=           0 FMFlag=      100000 FMFlg1=           0
         NFxFlg=           0 DoJE=T BraDBF=F KetDBF=T FulRan=T
         wScrn=  0.000000 ICntrl=       500 IOpCl=  0 I1Cent=   200000004 NGrid=           0
         NMat0=    1 NMatS0=      1 NMatT0=    0 NMatD0=    1 NMtDS0=    0 NMtDT0=    0
 Petite list used in FoFCou.
 Requested convergence on RMS density matrix=1.00D-08 within 128 cycles.
 Requested convergence on MAX density matrix=1.00D-06.
 Requested convergence on             energy=1.00D-06.
 No special actions if energy rises.
 SCF Done:  E(RM062X) =  -14221.7523435     A.U. after   11 cycles
            NFock= 11  Conv=0.82D-08     -V/T= 2.0023

 **********************************************************************

            Population analysis using the SCF density.

 **********************************************************************

 Orbital symmetries:
       Occupied  (A) (A) (A) (A) (A) (A) (A) (A) (A) (A) (A) (A)
                 (A) (A) (A) (A) (A) (A) (A) (A) (A) (A) (A) (A)
                 (A) (A) (A) (A) (A) (A) (A) (A) (A) (A) (A) (A)
                 (A) (A) (A) (A) (A) (A) (A) (A) (A) (A) (A) (A)
                 (A) (A) (A) (A) (A) (A) (A) (A) (A) (A) (A) (A)
                 (A) (A) (A) (A) (A) (A) (A) (A) (A) (A) (A) (A)
                 (A) (A) (A) (A) (A) (A) (A) (A) (A) (A) (A) (A)
                 (A) (A) (A) (A) (A) (A) (A) (A) (A) (A) (A) (A)
                 (A) (A) (A) (A) (A) (A) (A) (A) (A) (A) (A) (A)
                 (A) (A) (A) (A) (A) (A) (A) (A) (A) (A) (A) (A)
                 (A) (A) (A) (A) (A) (A) (A) (A) (A) (A) (A) (A)
                 (A) (A) (A) (A) (A) (A) (A) (A) (A) (A) (A) (A)
                 (A) (A) (A) (A) (A) (A) (A) (A) (A) (A) (A) (A)
                 (A) (A) (A) (A) (A) (A) (A) (A) (A) (A) (A) (A)
                 (A) (A) (A) (A) (A) (A) (A) (A) (A) (A) (A) (A)
                 (A) (A) (A) (A) (A) (A) (A) (A) (A) (A) (A) (A)
                 (A) (A) (A) (A) (A) (A) (A) (A) (A) (A) (A) (A)
                 (A) (A) (A) (A) (A) (A) (A) (A) (A) (A) (A) (A)
                 (A) (A) (A) (A) (A) (A) (A) (A) (A) (A) (A) (A)
                 (A) (A) (A) (A) (A) (A) (A) (A) (A) (A) (A) (A)
                 (A) (A) (A) (A) (A) (A) (A) (A) (A) (A) (A) (A)
                 (A) (A) (A) (A) (A) (A) (A) (A) (A) (A) (A) (A)
                 (A) (A) (A) (A) (A) (A) (A) (A) (A) (A) (A) (A)
                 (A) (A) (A) (A) (A) (A) (A) (A)
       Virtual   (A) (A) (A) (A) (A) (A) (A) (A) (A) (A) (A) (A)
                 (A) (A) (A) (A) (A) (A) (A) (A) (A) (A) (A) (A)
                 (A) (A) (A) (A) (A) (A) (A) (A) (A) (A) (A) (A)
                 (A) (A) (A) (A) (A) (A) (A) (A) (A) (A) (A) (A)
                 (A) (A) (A) (A) (A) (A) (A) (A) (A) (A) (A) (A)
                 (A) (A) (A) (A) (A) (A) (A) (A) (A) (A) (A) (A)
                 (A) (A) (A) (A) (A) (A) (A) (A) (A) (A) (A) (A)
                 (A) (A) (A) (A) (A) (A) (A) (A) (A) (A) (A) (A)
                 (A) (A) (A) (A) (A) (A) (A) (A) (A) (A) (A) (A)
                 (A) (A) (A) (A) (A) (A) (A) (A) (A) (A) (A) (A)
                 (A) (A) (A) (A) (A) (A) (A) (A) (A) (A) (A) (A)
                 (A) (A) (A) (A) (A) (A) (A) (A) (A) (A) (A) (A)
                 (A) (A) (A) (A) (A) (A) (A) (A) (A) (A) (A) (A)
                 (A) (A) (A) (A) (A) (A) (A) (A) (A) (A) (A) (A)
                 (A) (A) (A) (A) (A) (A) (A) (A) (A) (A) (A) (A)
                 (A) (A) (A) (A) (A) (A) (A) (A) (A) (A) (A) (A)
                 (A) (A) (A) (A) (A) (A) (A) (A) (A) (A) (A) (A)
                 (A) (A) (A) (A) (A) (A) (A) (A) (A) (A) (A) (A)
                 (A) (A) (A) (A) (A) (A) (A) (A) (A) (A) (A) (A)
                 (A) (A) (A) (A) (A) (A) (A) (A) (A) (A) (A) (A)
                 (A) (A) (A) (A) (A) (A) (A) (A) (A) (A) (A) (A)
                 (A) (A) (A) (A) (A) (A) (A) (A) (A) (A) (A) (A)
                 (A) (A) (A) (A) (A) (A) (A) (A) (A) (A) (A) (A)
                 (A) (A) (A) (A) (A) (A) (A) (A) (A) (A) (A) (A)
                 (A) (A) (A) (A) (A) (A) (A) (A) (A) (A) (A) (A)
                 (A) (A) (A) (A) (A) (A) (A) (A) (A) (A) (A) (A)
                 (A) (A) (A) (A) (A) (A) (A) (A) (A) (A) (A) (A)
                 (A) (A) (A) (A) (A) (A) (A) (A) (A) (A) (A) (A)
                 (A) (A) (A) (A) (A) (A) (A) (A) (A) (A) (A) (A)
                 (A) (A) (A) (A) (A) (A) (A) (A) (A) (A) (A) (A)
                 (A) (A) (A) (A) (A) (A) (A) (A) (A) (A) (A) (A)
                 (A) (A) (A) (A) (A) (A) (A) (A) (A) (A) (A) (A)
                 (A) (A) (A) (A) (A) (A) (A) (A) (A) (A) (A) (A)
                 (A) (A) (A) (A) (A) (A) (A) (A) (A) (A) (A) (A)
                 (A) (A) (A) (A) (A) (A) (A) (A) (A) (A) (A) (A)
                 (A) (A) (A) (A) (A) (A) (A) (A) (A) (A) (A) (A)
                 (A) (A) (A) (A) (A) (A) (A) (A) (A) (A) (A) (A)
                 (A) (A) (A) (A) (A) (A) (A) (A) (A) (A) (A) (A)
                 (A) (A) (A) (A) (A) (A) (A) (A) (A) (A) (A) (A)
                 (A) (A) (A) (A) (A) (A) (A) (A)
 The electronic state is 1-A.
 Alpha  occ. eigenvalues -- -102.75207-102.75200-102.74928-102.74920-102.74296
 Alpha  occ. eigenvalues -- -102.74296-102.73841-102.73837-102.73532-102.73525
 Alpha  occ. eigenvalues -- -102.72699-102.72695-102.72683-102.72681-102.72457
 Alpha  occ. eigenvalues -- -102.72452-102.71731-102.71724-102.71005-102.71004
 Alpha  occ. eigenvalues -- -102.68911-102.68908-102.64335-102.64335-102.63732
 Alpha  occ. eigenvalues -- -102.63732 -57.08110 -57.08102 -57.07182 -57.07178
 Alpha  occ. eigenvalues --  -57.03816 -57.03816 -47.71369 -47.71362 -47.71227
 Alpha  occ. eigenvalues --  -47.71226  -9.89491  -9.89484  -9.89197  -9.89189
 Alpha  occ. eigenvalues --   -9.88590  -9.88590  -9.88230  -9.88226  -9.87904
 Alpha  occ. eigenvalues --   -9.87896  -9.87163  -9.87158  -9.86892  -9.86890
 Alpha  occ. eigenvalues --   -9.86763  -9.86757  -9.85755  -9.85749  -9.85299
 Alpha  occ. eigenvalues --   -9.85298  -9.83009  -9.83005  -9.78570  -9.78569
 Alpha  occ. eigenvalues --   -9.77969  -9.77969  -7.61595  -7.61588  -7.61318
 Alpha  occ. eigenvalues --   -7.61312  -7.61304  -7.61295  -7.61218  -7.61211
 Alpha  occ. eigenvalues --   -7.61021  -7.61012  -7.60919  -7.60910  -7.60550
 Alpha  occ. eigenvalues --   -7.60550  -7.60498  -7.60497  -7.60392  -7.60392
 Alpha  occ. eigenvalues --   -7.60185  -7.60181  -7.60126  -7.60122  -7.60060
 Alpha  occ. eigenvalues --   -7.60055  -7.59841  -7.59833  -7.59827  -7.59820
 Alpha  occ. eigenvalues --   -7.59735  -7.59728  -7.59086  -7.59082  -7.59081
 Alpha  occ. eigenvalues --   -7.59077  -7.59012  -7.59007  -7.58953  -7.58951
 Alpha  occ. eigenvalues --   -7.58821  -7.58815  -7.58777  -7.58775  -7.58640
 Alpha  occ. eigenvalues --   -7.58635  -7.58587  -7.58585  -7.58489  -7.58484
 Alpha  occ. eigenvalues --   -7.57930  -7.57924  -7.57497  -7.57490  -7.57472
 Alpha  occ. eigenvalues --   -7.57466  -7.57346  -7.57345  -7.57196  -7.57195
 Alpha  occ. eigenvalues --   -7.57031  -7.57030  -7.55161  -7.55157  -7.54788
 Alpha  occ. eigenvalues --   -7.54784  -7.54721  -7.54717  -7.50716  -7.50715
 Alpha  occ. eigenvalues --   -7.50344  -7.50344  -7.50272  -7.50272  -7.50116
 Alpha  occ. eigenvalues --   -7.50116  -7.49746  -7.49745  -7.49672  -7.49672
 Alpha  occ. eigenvalues --   -4.57514  -4.57508  -4.56352  -4.56348  -4.52989
 Alpha  occ. eigenvalues --   -4.52989  -3.46065  -3.46059  -3.45935  -3.45934
 Alpha  occ. eigenvalues --   -3.08031  -3.08024  -3.07795  -3.07788  -3.07692
 Alpha  occ. eigenvalues --   -3.07685  -3.06911  -3.06907  -3.06598  -3.06595
 Alpha  occ. eigenvalues --   -3.06579  -3.06575  -3.03478  -3.03478  -3.03255
 Alpha  occ. eigenvalues --   -3.03255  -3.03179  -3.03179  -2.15354  -2.15347
 Alpha  occ. eigenvalues --   -2.15337  -2.15329  -2.15268  -2.15261  -2.15215
 Alpha  occ. eigenvalues --   -2.15213  -2.15208  -2.15207  -2.15137  -2.15136
 Alpha  occ. eigenvalues --   -1.00948  -1.00481  -1.00172  -0.99850  -0.99201
 Alpha  occ. eigenvalues --   -0.99029  -0.98741  -0.98302  -0.97927  -0.97841
 Alpha  occ. eigenvalues --   -0.97382  -0.97269  -0.96764  -0.96623  -0.96376
 Alpha  occ. eigenvalues --   -0.96359  -0.95122  -0.95117  -0.94509  -0.94503
 Alpha  occ. eigenvalues --   -0.92009  -0.92005  -0.89352  -0.89352  -0.86405
 Alpha  occ. eigenvalues --   -0.86405  -0.59553  -0.59519  -0.58704  -0.58536
 Alpha  occ. eigenvalues --   -0.56438  -0.56260  -0.55596  -0.55152  -0.54704
 Alpha  occ. eigenvalues --   -0.54360  -0.54195  -0.53909  -0.53663  -0.53599
 Alpha  occ. eigenvalues --   -0.52930  -0.52640  -0.52182  -0.52001  -0.51774
 Alpha  occ. eigenvalues --   -0.51351  -0.50725  -0.50531  -0.50484  -0.50119
 Alpha  occ. eigenvalues --   -0.49424  -0.49363  -0.49173  -0.48991  -0.48728
 Alpha  occ. eigenvalues --   -0.48376  -0.48020  -0.47714  -0.47490  -0.47269
 Alpha  occ. eigenvalues --   -0.47260  -0.46880  -0.46791  -0.46630  -0.46567
 Alpha  occ. eigenvalues --   -0.46429  -0.46340  -0.46001  -0.45961  -0.45722
 Alpha  occ. eigenvalues --   -0.45505  -0.45356  -0.45268  -0.45217  -0.44846
 Alpha  occ. eigenvalues --   -0.44782  -0.44486  -0.44424  -0.44396  -0.44298
 Alpha  occ. eigenvalues --   -0.44283  -0.44153  -0.43629  -0.43586  -0.43487
 Alpha  occ. eigenvalues --   -0.43479  -0.43288  -0.43274  -0.42221  -0.42211
 Alpha  occ. eigenvalues --   -0.41329  -0.41325  -0.40210  -0.40186  -0.39457
 Alpha  occ. eigenvalues --   -0.39447  -0.39127  -0.39125  -0.38596  -0.38594
 Alpha  occ. eigenvalues --   -0.35750  -0.35750  -0.32643  -0.32643
 Alpha virt. eigenvalues --   -0.13353  -0.13031  -0.11960  -0.11883  -0.10615
 Alpha virt. eigenvalues --   -0.10566  -0.07440  -0.07374  -0.06310  -0.06218
 Alpha virt. eigenvalues --   -0.02844  -0.01866  -0.01698  -0.01681  -0.01060
 Alpha virt. eigenvalues --   -0.00848   0.00010   0.00116   0.01090   0.01555
 Alpha virt. eigenvalues --    0.01652   0.02093   0.02897   0.03422   0.04479
 Alpha virt. eigenvalues --    0.05552   0.06059   0.06272   0.06706   0.07766
 Alpha virt. eigenvalues --    0.07910   0.08460   0.09476   0.09670   0.11239
 Alpha virt. eigenvalues --    0.11496   0.11863   0.11867   0.12395   0.12433
 Alpha virt. eigenvalues --    0.13376   0.13460   0.13652   0.14133   0.14558
 Alpha virt. eigenvalues --    0.14913   0.15146   0.15688   0.15739   0.15872
 Alpha virt. eigenvalues --    0.16068   0.16242   0.16577   0.16873   0.17070
 Alpha virt. eigenvalues --    0.17387   0.18299   0.18524   0.18818   0.18904
 Alpha virt. eigenvalues --    0.18987   0.19381   0.20107   0.20272   0.22123
 Alpha virt. eigenvalues --    0.22964   0.23715   0.23963   0.24776   0.24965
 Alpha virt. eigenvalues --    0.25234   0.25820   0.25976   0.26010   0.26549
 Alpha virt. eigenvalues --    0.26706   0.27126   0.27303   0.28185   0.28680
 Alpha virt. eigenvalues --    0.28831   0.29492   0.29799   0.30296   0.30502
 Alpha virt. eigenvalues --    0.30637   0.30883   0.31100   0.31475   0.31516
 Alpha virt. eigenvalues --    0.32443   0.33172   0.33941   0.33977   0.34536
 Alpha virt. eigenvalues --    0.34554   0.34797   0.35214   0.35439   0.35871
 Alpha virt. eigenvalues --    0.36171   0.36187   0.36724   0.37420   0.37635
 Alpha virt. eigenvalues --    0.37896   0.37964   0.38351   0.38652   0.39117
 Alpha virt. eigenvalues --    0.39143   0.39255   0.39545   0.39550   0.40156
 Alpha virt. eigenvalues --    0.40324   0.40467   0.40584   0.40855   0.40991
 Alpha virt. eigenvalues --    0.41424   0.41728   0.41822   0.42261   0.42755
 Alpha virt. eigenvalues --    0.43058   0.43349   0.43379   0.43709   0.43716
 Alpha virt. eigenvalues --    0.44169   0.44394   0.44974   0.45096   0.45522
 Alpha virt. eigenvalues --    0.45829   0.45951   0.46094   0.46685   0.46782
 Alpha virt. eigenvalues --    0.47175   0.47222   0.47348   0.47373   0.48037
 Alpha virt. eigenvalues --    0.48326   0.48987   0.49150   0.49503   0.49585
 Alpha virt. eigenvalues --    0.49698   0.50418   0.50468   0.50600   0.50644
 Alpha virt. eigenvalues --    0.51481   0.51595   0.51828   0.52171   0.52212
 Alpha virt. eigenvalues --    0.52901   0.53684   0.53989   0.54267   0.54587
 Alpha virt. eigenvalues --    0.54840   0.56181   0.56726   0.57557   0.57727
 Alpha virt. eigenvalues --    0.59516   0.59812   0.60153   0.60559   0.61009
 Alpha virt. eigenvalues --    0.63803   0.69173   0.70591   0.71184   0.71727
 Alpha virt. eigenvalues --    0.72133   0.72624   0.73478   0.73497   0.74318
 Alpha virt. eigenvalues --    0.74606   0.75190   0.75232   0.75310   0.75464
 Alpha virt. eigenvalues --    0.75651   0.75701   0.75815   0.75846   0.75933
 Alpha virt. eigenvalues --    0.75959   0.76089   0.76297   0.76544   0.76587
 Alpha virt. eigenvalues --    0.76675   0.76736   0.76816   0.76911   0.77059
 Alpha virt. eigenvalues --    0.77237   0.77428   0.77434   0.77514   0.77606
 Alpha virt. eigenvalues --    0.77799   0.77989   0.78096   0.78157   0.78225
 Alpha virt. eigenvalues --    0.78474   0.78602   0.78673   0.78724   0.78969
 Alpha virt. eigenvalues --    0.79174   0.79339   0.79428   0.79522   0.79823
 Alpha virt. eigenvalues --    0.79863   0.79942   0.79959   0.80166   0.80430
 Alpha virt. eigenvalues --    0.80545   0.80581   0.80659   0.80665   0.80970
 Alpha virt. eigenvalues --    0.81090   0.81379   0.81434   0.81598   0.81825
 Alpha virt. eigenvalues --    0.81881   0.82167   0.82182   0.82455   0.82619
 Alpha virt. eigenvalues --    0.82635   0.82816   0.82857   0.83136   0.83145
 Alpha virt. eigenvalues --    0.83321   0.83485   0.84219   0.84402   0.84485
 Alpha virt. eigenvalues --    0.84501   0.85299   0.85380   0.86059   0.86138
 Alpha virt. eigenvalues --    0.86217   0.86262   0.86577   0.86795   0.86846
 Alpha virt. eigenvalues --    0.86965   0.87259   0.87310   0.87738   0.87807
 Alpha virt. eigenvalues --    0.88117   0.88152   0.89385   0.89466   0.89902
 Alpha virt. eigenvalues --    0.89966   0.90089   0.90408   0.90915   0.91491
 Alpha virt. eigenvalues --    0.91711   0.91768   0.92347   0.92452   0.93214
 Alpha virt. eigenvalues --    0.93363   0.93415   0.93595   0.93970   0.94011
 Alpha virt. eigenvalues --    0.94696   0.95311   0.95391   0.95810   0.95854
[...]
 1220,0.00002627,-0.00008434,-0.00001941,-0.00004401,-0.00010900,0.0000
 2339,0.00016363,-0.00032955,0.00016522,0.00028266,-0.00106391,0.012429
 43,0.05736973,0.13567761,-0.01361794,0.00612359,0.00624290,0.00131358,
 -0.00124527,-0.00046359,-0.02924791,-0.00813598,-0.01633173,-0.0161867
 4,0.00234549,0.01484270,0.00002634,-0.00426594,0.00025298,0.01012796,0
 .00660046,-0.00394356,-0.00055815,0.00293132,0.00074045,-0.01115677,-0
 .00783748,0.01151933,-0.00117479,-0.00148740,0.00015587,0.00005672,-0.
 00049606,-0.00019699,0.00248753,0.00011975,-0.00085074,0.00278343,0.00
 145287,-0.00107971,0.00058338,-0.00076391,-0.00021242,-0.00207672,0.00
 141098,0.00052004,-0.00070816,-0.00090785,0.00000845,0.00111545,-0.000
 48535,0.00003018,0.00033430,-0.00052020,-0.00010811,-0.00607706,0.0030
 0273,0.00016466,0.00029503,-0.00018408,0.00004274,-0.00552679,0.011152
 74,-0.00241923,0.00061345,0.00316940,-0.00169657,-0.00153122,0.0004878
 8,0.00052646,0.00035320,-0.00007403,0.00021534,0.00115769,-0.00031820,
 -0.00070288,0.00077899,0.00101624,0.00016103,-0.02683053,0.05198355,0.
 00621083,0.00196963,0.00335272,0.00254473,-0.00045879,-0.00039381,-0.0
 0000215,0.00019697,-0.00042887,-0.00005685,0.00030194,-0.00003164,-0.0
 0016733,-0.00407497,-0.00171039,0.00078278,0.09607430,0.00307970,0.008
 28788,0.00599229,-0.00162196,-0.00092593,-0.00001761,-0.00186027,-0.01
 294094,-0.00562228,0.00411095,-0.01701068,-0.01157946,-0.00363905,-0.0
 0086536,-0.00015277,0.00782615,-0.01299384,-0.00576314,0.00213617,-0.0
 0010792,-0.00061748,-0.01148272,-0.05543027,0.03536982,-0.00085829,0.0
 0042740,0.00026181,-0.00071270,-0.00008051,0.00000254,0.00091647,-0.00
 094032,-0.00036481,0.00051223,-0.00073044,-0.00019107,-0.00064725,-0.0
 0016465,0.00006926,0.00057969,0.00161644,0.00054933,-0.00088278,0.0001
 2678,-0.00008454,0.00014446,-0.00032594,-0.00007312,-0.00026424,-0.000
 30317,0.00008163,0.00162478,0.00090518,0.00203141,-0.00036041,-0.00032
 283,-0.00013091,-0.00025473,-0.00810518,0.00089744,0.00159586,0.000056
 26,0.00077938,-0.00142877,0.00186517,0.00074597,-0.00005282,-0.0001056
 5,-0.00006820,0.00046195,-0.00074480,-0.00031119,0.00025229,-0.0003517
 2,-0.00017280,0.05102234,-0.13575809,-0.00921092,0.00075164,-0.0003906
 8,0.00091615,-0.00016116,0.00073012,0.00034988,-0.00023611,0.00002038,
 -0.00002478,-0.00005410,-0.00012751,0.00001418,-0.00160156,0.00102925,
 0.00041121,-0.04758631,0.23319290,0.00486731,0.00560491,0.01477662,-0.
 00197097,0.00023688,-0.00117262,-0.00963892,-0.00687891,-0.02227258,0.
 00998607,-0.00680624,-0.03478380,0.00026960,-0.00035716,-0.00386613,-0
 .00453107,-0.00299805,0.01619075,0.00030484,-0.00028443,0.00193032,0.0
 1257674,0.02793087,-0.03610536,-0.00034863,0.00132431,-0.00148369,-0.0
 0038193,0.00008173,-0.00025077,0.00149919,0.00017705,-0.00160740,-0.00
 103168,-0.00024051,-0.00205829,0.00003342,-0.00001676,-0.00049053,0.00
 053836,0.00082587,0.00134950,-0.00005734,-0.00001059,-0.00055478,0.000
 26964,-0.00019034,-0.00016600,-0.00018709,0.00008123,-0.00014944,-0.00
 069932,0.00225726,-0.00220976,-0.00009696,-0.00011788,-0.00013652,-0.0
 0148233,0.00832675,-0.00837031,0.00020859,0.00202277,-0.00364482,0.001
 09447,-0.00133318,-0.00158782,0.00001706,-0.00004235,-0.00007877,0.000
 04203,-0.00016860,-0.00056401,-0.00004943,-0.00007522,-0.00048145,0.00
 550287,-0.00753433,-0.00943962,0.00146013,0.00211401,0.00094779,0.0000
 7948,-0.00002681,-0.00045970,-0.00009550,0.00002805,-0.00010177,0.0000
 2995,-0.00001828,-0.00013382,0.00048865,-0.00054781,0.00278903,-0.0148
 2156,-0.00905131,0.08610612,-0.00234655,-0.00099829,-0.00061478,0.0009
 4337,0.00022358,-0.00001333,0.00070743,0.00063281,0.00076385,0.0013020
 7,0.00231598,0.00094213,0.00118122,0.00022155,0.00048515,-0.00999483,-
 0.00083457,-0.00841504,-0.00232989,-0.00021373,-0.00040467,-0.00041540
 ,0.00101853,0.00210976,0.00226065,-0.00131807,0.00068606,0.00089189,-0
 .00003014,0.00001828,0.00041433,0.00028590,-0.00000018,0.00069426,0.00
 048356,0.00004671,0.00052816,-0.00003663,-0.00002876,-0.00095493,-0.00
 023724,-0.00012847,0.00089495,-0.00036933,0.00053601,0.00038191,-0.000
 02253,0.00007147,0.00028575,0.00004929,-0.00006258,-0.04647440,0.02802
 796,0.01387262,0.00034604,0.00012265,0.00011566,-0.01758653,-0.0247585
 7,-0.00257505,-0.02712656,-0.01473483,0.04263909,0.00114581,-0.0018179
 9,0.00140801,0.00019446,0.00002495,0.00014914,0.00027445,0.00011398,-0
 .00009335,0.00020642,0.00035763,0.00012170,0.00004491,0.00151534,0.000
 53559,-0.05712206,-0.00431710,-0.06856856,0.00004681,-0.00116820,-0.00
 009646,0.00030480,-0.00022296,0.00002209,0.00016802,0.00005246,-0.0000
 6760,-0.00093902,-0.00067091,-0.00013267,-0.00189441,-0.00466171,-0.00
 305701,0.15767537,-0.00225957,0.00122245,-0.00030455,0.00035020,-0.000
 75556,-0.00005387,0.00190364,-0.00070095,0.00044076,0.00481999,-0.0044
 2087,-0.00055253,0.00016895,-0.00180520,-0.00008421,0.00611833,0.00858
 602,0.00666612,0.00131724,0.00189151,0.00059991,0.00204667,-0.00667878
 ,0.00233760,-0.00244434,0.00021950,-0.00031622,-0.00059269,-0.00027083
 ,-0.00010127,0.00040858,-0.00032230,0.00001473,0.00074663,0.00005605,0
 .00011088,-0.00005733,-0.00038448,-0.00004838,-0.00033915,0.00073949,0
 .00004145,-0.00105560,-0.00029652,-0.00037466,0.00018963,-0.00019609,-
 0.00001010,-0.00001865,-0.00034951,0.00001621,0.02180167,-0.02720565,-
 0.01186477,-0.00010585,-0.00019655,-0.00005226,-0.01279715,-0.06935255
 ,0.00373635,-0.01561963,-0.02296197,0.03898341,-0.00118283,0.00054430,
 -0.00063934,0.00002115,-0.00006073,0.00000027,0.00032111,-0.00030323,-
 0.00011893,0.00020437,0.00000560,0.00003648,0.00226048,0.00393052,0.00
 295745,-0.00398842,-0.00931188,-0.00545666,-0.00040990,0.00027062,-0.0
 0007092,-0.00010936,-0.00009774,-0.00003825,0.00001390,-0.00006818,-0.
 00000230,-0.00120003,0.00028675,-0.00016164,-0.02114119,0.00123618,-0.
 01413678,0.01770488,0.12673442,-0.00051668,0.00006192,0.00085425,0.000
 07178,-0.00006240,-0.00024910,0.00104999,0.00046433,-0.00050047,0.0008
 9459,-0.00063675,-0.00148743,0.00060148,-0.00026025,-0.00052908,-0.001
 97817,0.00307648,0.00591143,0.00006482,0.00033305,0.00074927,0.0011371
 2,0.00158937,-0.00272825,-0.00075030,0.00056098,-0.00062908,-0.0001343
 0,-0.00004886,-0.00015276,0.00017058,0.00005707,-0.00018226,0.00007259
 ,0.00006120,-0.00016508,0.00010895,-0.00007068,-0.00016604,-0.00008997
 ,0.00008641,0.00021127,0.00008381,0.00000756,-0.00032150,0.00007382,-0
 .00003525,-0.00004012,0.00001218,-0.00002265,-0.00007548,0.00832070,-0
 .00909817,-0.01499410,0.00000360,-0.00002203,-0.00004016,-0.00353155,-
 0.00228024,-0.00939052,0.04554645,0.03964623,-0.12297462,0.00040016,-0
 .00009395,-0.00163822,0.00001108,-0.00000648,-0.00002972,0.00008239,-0
 .00003599,-0.00011623,0.00003424,0.00002356,-0.00005169,-0.00029334,-0
 .00047919,-0.00082291,-0.07058238,-0.00612709,-0.11105457,0.00003712,-
 0.00008597,-0.00035374,-0.00001390,-0.00001401,-0.00005109,0.00002393,
 0.00000523,-0.00005900,-0.00017210,-0.00008595,0.00031252,-0.00140936,
 -0.00412430,0.00409042,0.02128604,-0.02245116,0.25428925,0.00174143,-0
 .00109567,-0.00012203,-0.00108755,0.00107553,-0.00010448,-0.00129769,-
 0.00000908,0.00001681,-0.00151209,-0.00005239,0.00035894,-0.00451578,0
 .00174982,0.00041586,0.00628506,0.01201691,-0.00590541,-0.00125219,-0.
 01671654,0.00749615,-0.00045660,-0.00257492,0.00063449,-0.01417757,-0.
 00235644,0.00333815,0.00237870,0.00130843,-0.00162177,-0.00036569,0.00
 051753,-0.00002371,-0.00052036,0.00012781,-0.00008017,0.00177071,0.002
 14943,-0.00070478,0.00036190,-0.00246995,0.00046105,-0.08693500,-0.001
 36256,-0.04067108,0.00024671,0.00055418,0.00011760,0.00051768,0.001229
 71,-0.00043544,0.00118249,-0.00182823,0.00110789,0.00098821,0.00078725
 ,0.00028284,-0.00046145,-0.00114723,-0.00003513,0.00035071,-0.00059734
 ,0.00024359,-0.04900281,0.01940982,0.04019636,0.00031342,0.00020177,0.
 00026563,-0.00029052,0.00049086,0.00007206,-0.00008257,0.00025073,0.00
 004890,-0.00031181,-0.00046168,0.00001139,0.00052080,-0.00034819,0.000
 50757,-0.01906550,-0.03853739,-0.01669856,0.00086419,-0.00003613,-0.00
 020602,0.00027523,0.00027255,-0.00017350,0.00075333,-0.00080905,0.0000
 7063,0.00250701,0.00207915,-0.00102208,-0.00181125,0.00247669,-0.00058
 724,0.16710276,-0.00098884,-0.00273223,0.00017417,0.00187993,0.0010028
 9,0.00001177,-0.00001656,0.00068879,0.00033445,-0.00061911,0.00136564,
 0.00039791,0.00184754,0.00209715,0.00125083,0.00745058,-0.01065256,-0.
 00357855,-0.01288823,-0.00053764,-0.00402580,-0.00048605,0.00085882,0.
 00020895,-0.00132993,-0.03831176,0.03212040,0.00208908,-0.00057428,0.0
 0028142,0.00053900,0.00054874,0.00001373,0.00042896,0.00047414,-0.0000
 0045,0.00046279,-0.00080979,0.00022684,-0.00176003,0.00011156,-0.00042
 590,-0.00805113,-0.01340656,-0.00152884,0.00051477,-0.00017796,0.00007
 921,0.00040488,-0.00024616,0.00000197,-0.00335025,0.00121032,-0.000449
 42,0.00026052,-0.00015630,0.00007661,-0.00063932,0.00023718,-0.0001293
 6,-0.00075753,-0.00008234,0.00039295,0.02536555,-0.02671357,-0.0234592
 7,0.00019249,-0.00004618,0.00013997,0.00036751,0.00019756,-0.00011084,
 0.00019347,0.00037079,0.00010266,-0.00030416,0.00059874,0.00008130,-0.
 00091870,0.00001300,-0.00062265,-0.03832565,-0.14206853,-0.05778761,0.
 00054243,-0.00089478,0.00010014,0.00017462,-0.00002195,-0.00003716,-0.
 00080906,-0.00084542,0.00002307,0.00114686,-0.00168110,-0.00051342,0.0
 0325852,-0.00095603,-0.00009122,0.02650628,0.22982375,-0.00023412,-0.0
 0026170,0.00201231,-0.00106438,-0.00094761,-0.00130690,0.00010285,0.00
 022911,-0.00053110,0.00074580,-0.00083498,-0.00160391,0.00035538,0.001
 08771,-0.00413712,-0.00520582,-0.00526112,0.01497937,0.00755098,-0.002
 98804,0.01297405,-0.00009141,0.00239547,-0.00122926,0.00118492,0.02426
 859,-0.04335029,-0.00201755,0.00004874,-0.00236182,0.00007182,0.000087
 49,-0.00048203,-0.00009568,-0.00012980,-0.00021725,0.00106524,0.000672
 35,-0.00151775,0.00068181,-0.00037898,0.00112864,-0.03769867,0.0014082
 7,-0.02990034,0.00008257,0.00010904,-0.00012618,-0.00017194,-0.0000754
 4,-0.00042721,0.00141039,-0.00034909,-0.00224584,0.00010573,0.00005482
 ,-0.00016643,-0.00006314,-0.00017017,-0.00057749,0.00016530,0.00028256
 ,-0.00106381,0.03919603,-0.01776706,-0.04850201,0.00001220,0.00002628,
 -0.00008433,-0.00003675,-0.00017841,-0.00018598,-0.00001941,-0.0000440
 0,-0.00010900,0.00002338,0.00016365,-0.00032955,0.00011361,-0.00012934
 ,-0.00038506,-0.01685862,-0.05873425,-0.03397085,-0.00025941,0.0002317
 2,-0.00047843,0.00002407,0.00004665,-0.00016490,0.00007064,0.00002305,
 0.00061417,-0.00092357,-0.00111118,0.00299992,-0.00130124,0.00060024,0
 .00196555,0.01242886,0.05737592,0.13567932,-0.00055809,0.00293132,0.00
 074048,0.00002623,-0.00426600,0.00025298,0.00005669,-0.00049606,-0.000
 19700,0.00058339,-0.00076394,-0.00021243,0.00131350,-0.00124530,-0.000
 46361,-0.00207672,0.00141106,0.00052009,-0.01361798,0.00612390,0.00624
 349,0.00033430,-0.00052020,-0.00010811,0.00248752,0.00011964,-0.000850
 77,-0.02924866,-0.00813577,-0.01633234,-0.00117480,-0.00148728,0.00015
 583,-0.00070817,-0.00090784,0.00000844,-0.01618996,0.00234800,0.014846
 32,0.01012797,0.00659989,-0.00394348,0.00278341,0.00145286,-0.00107974
 ,-0.00607711,0.00300263,0.00016485,-0.01115628,-0.00783729,0.01151998,
 0.00111546,-0.00048537,0.00003021,-0.00552576,0.01115434,-0.00241717,0
 .00029502,-0.00018408,0.00004275,0.00030194,-0.00003165,-0.00016733,0.
 00115768,-0.00031819,-0.00070288,0.00196967,0.00335287,0.00254470,-0.0
 0153122,0.00048785,0.00052644,-0.00045879,-0.00039380,-0.00000215,0.00
 019697,-0.00042886,-0.00005688,0.00035318,-0.00007404,0.00021534,0.000
 77899,0.00101621,0.00016103,-0.02682744,0.05198123,0.00620640,0.000613
 20,0.00316952,-0.00169678,0.00250699,0.00114680,-0.00092350,-0.0006896
 2,0.00116246,0.00037052,-0.00126633,0.00055496,0.00005437,-0.00407494,
 -0.00171032,0.00078279,0.09607341,0.00213618,-0.00010795,-0.00061752,-
 0.00363916,-0.00086530,-0.00015268,-0.00071269,-0.00008052,0.00000254,
 -0.00064726,-0.00016467,0.00006926,-0.00162197,-0.00092593,-0.00001761
 ,0.00057967,0.00161650,0.00054936,0.00308007,0.00828791,0.00599216,-0.
 00026424,-0.00030318,0.00008163,0.00091644,-0.00094040,-0.00036478,-0.
 00186015,-0.01294073,-0.00562241,-0.00085823,0.00042737,0.00026179,-0.
 00088275,0.00012679,-0.00008454,0.00411330,-0.01701288,-0.01158282,0.0
 0782577,-0.01299431,-0.00576265,0.00051226,-0.00073045,-0.00019103,0.0
 0162456,0.00090528,0.00203124,-0.01148198,-0.05542613,0.03536849,0.000
 14446,-0.00032595,-0.00007311,-0.00025361,-0.00810366,0.00089741,-0.00
 036041,-0.00032282,-0.00013092,-0.00005410,-0.00012751,0.00001418,0.00
 046195,-0.00074480,-0.00031117,0.00075177,-0.00039052,0.00091623,-0.00
 142873,0.00186512,0.00074595,-0.00016116,0.00073011,0.00034986,-0.0002
 3611,0.00002038,-0.00002477,-0.00005282,-0.00010565,-0.00006820,0.0002
 5230,-0.00035174,-0.00017280,0.05101967,-0.13576361,-0.00920141,0.0015
 9585,0.00005641,0.00077939,0.00207907,-0.00168104,-0.00111112,0.001162
 45,0.00030346,0.00007997,0.00011065,0.00061015,0.00011958,-0.00160163,
 0.00102932,0.00041113,-0.04758767,0.23319565,0.00030479,-0.00028446,0.
 00193032,0.00026963,-0.00035711,-0.00386626,-0.00038192,0.00008174,-0.
 00025078,0.00003343,-0.00001677,-0.00049053,-0.00197100,0.00023695,-0.
 00117267,0.00053832,0.00082589,0.00134958,0.00486793,0.00560469,0.0147
 7693,-0.00018708,0.00008123,-0.00014945,0.00149916,0.00017700,-0.00160
 741,-0.00963977,-0.00687896,-0.02227339,-0.00034856,0.00132416,-0.0014
 8363,-0.00005733,-0.00001059,-0.00055477,0.00998969,-0.00680970,-0.034
 79007,-0.00453113,-0.00299743,0.01619119,-0.00103173,-0.00024049,-0.00
 205830,-0.00069900,0.00225705,-0.00220966,0.01257718,0.02792939,-0.036
 10593,0.00026964,-0.00019034,-0.00016599,-0.00148021,0.00832639,-0.008
 36763,-0.00009696,-0.00011787,-0.00013652,0.00002996,-0.00001828,-0.00
 013382,0.00004201,-0.00016857,-0.00056401,0.00145996,0.00211383,0.0009
 4756,0.00109445,-0.00133315,-0.00158782,0.00007948,-0.00002683,-0.0004
 5969,-0.00009550,0.00002805,-0.00010176,0.00001707,-0.00004234,-0.0000
 7877,-0.00004944,-0.00007522,-0.00048145,0.00549852,-0.00752476,-0.009
 43800,0.00020817,0.00202264,-0.00364480,-0.00102208,-0.00051338,0.0029
 9983,0.00037049,0.00007997,0.00068536,-0.00016712,0.00025730,0.0003039
 1,0.00048873,-0.00054784,0.00278901,-0.01482362,-0.00905659,0.08610896
 ,-0.00232990,-0.00021377,-0.00040467,0.00118126,0.00022159,0.00048512,
 0.00089190,-0.00003013,0.00001829,0.00052817,-0.00003662,-0.00002875,0
 .00094336,0.00022360,-0.00001333,-0.00095492,-0.00023726,-0.00012848,-
 0.00234649,-0.00099831,-0.00061473,0.00028575,0.00004930,-0.00006258,0
 .00041432,0.00028590,-0.00000018,0.00070739,0.00063281,0.00076382,0.00
 226061,-0.00131802,0.00068604,0.00089496,-0.00036933,0.00053602,0.0013
 0191,0.00231603,0.00094208,-0.00999505,-0.00083459,-0.00841549,0.00069
 423,0.00048354,0.00004671,-0.04647508,0.02802610,0.01387524,-0.0004153
 9,0.00101863,0.00210957,0.00038191,-0.00002253,0.00007148,-0.01758658,
 -0.02475786,-0.00257530,0.00034604,0.00012265,0.00011567,0.00016803,0.
 00005246,-0.00006760,0.00027444,0.00011398,-0.00009335,-0.05712961,-0.
 00431889,-0.06857157,0.00114586,-0.00181809,0.00140807,0.00004681,-0.0
 0116822,-0.00009646,0.00030481,-0.00022295,0.00002207,0.00019446,0.000
 02495,0.00014915,0.00020641,0.00035762,0.00012171,0.00004487,0.0015150
 4,0.00053520,-0.02711965,-0.01473322,0.04263053,-0.00181129,0.00325855
 ,-0.00130124,-0.00126634,0.00011064,-0.00016712,-0.00063093,-0.0001073
 9,-0.00008250,-0.00093899,-0.00067091,-0.00013266,-0.00189368,-0.00466
 174,-0.00305619,0.15767642,0.00131717,0.00189151,0.00059988,0.00016897
 ,-0.00180521,-0.00008421,-0.00059266,-0.00027083,-0.00010127,-0.000057
 32,-0.00038449,-0.00004838,0.00035020,-0.00075557,-0.00005387,-0.00033
 917,0.00073949,0.00004145,-0.00225962,0.00122248,-0.00030454,-0.000018
 64,-0.00034950,0.00001621,0.00040859,-0.00032231,0.00001472,0.00190367
 ,-0.00070095,0.00044079,-0.00244412,0.00021945,-0.00031612,-0.00105558
 ,-0.00029653,-0.00037464,0.00481991,-0.00442050,-0.00055256,0.00611776
 ,0.00858605,0.00666586,0.00074665,0.00005606,0.00011088,0.02180037,-0.
 02720321,-0.01186552,0.00204682,-0.00667886,0.00233789,0.00018964,-0.0
 0019609,-0.00001010,-0.01279631,-0.06935559,0.00373523,-0.00010585,-0.
 00019654,-0.00005226,0.00001390,-0.00006817,-0.00000231,0.00032111,-0.
 00030322,-0.00011893,-0.00399023,-0.00931224,-0.00545885,-0.00118288,0
 .00054429,-0.00063926,-0.00040990,0.00027060,-0.00007090,-0.00010936,-
 0.00009774,-0.00003825,0.00002115,-0.00006073,0.00000028,0.00020437,0.
 00000561,0.00003648,0.00226086,0.00393074,0.00295681,-0.01561824,-0.02
 296425,0.03898709,0.00247671,-0.00095594,0.00060008,0.00055492,0.00061
 014,0.00025731,-0.00010740,0.00036206,0.00003962,-0.00120004,0.0002867
 6,-0.00016164,-0.02114189,0.00123530,-0.01413557,0.01770645,0.12673796
 ,0.00006493,0.00033308,0.00074932,0.00060146,-0.00026026,-0.00052912,-
 0.00013434,-0.00004887,-0.00015276,0.00010894,-0.00007068,-0.00016604,
 0.00007174,-0.00006242,-0.00024910,-0.00008994,0.00008642,0.00021128,-
 0.00051659,0.00006197,0.00085430,0.00001217,-0.00002265,-0.00007548,0.
 00017057,0.00005705,-0.00018226,0.00105001,0.00046434,-0.00050052,-0.0
 0075045,0.00056109,-0.00062913,0.00008380,0.00000758,-0.00032155,0.000
 89457,-0.00063688,-0.00148752,-0.00197845,0.00307648,0.00591226,0.0000
 7258,0.00006118,-0.00016508,0.00832292,-0.00909921,-0.01499616,0.00113
 711,0.00158957,-0.00272839,0.00007380,-0.00003525,-0.00004012,-0.00353
 152,-0.00228099,-0.00939060,0.00000359,-0.00002204,-0.00004016,0.00002
 393,0.00000523,-0.00005899,0.00008238,-0.00003599,-0.00011622,-0.07058
 532,-0.00612927,-0.11104748,0.00040021,-0.00009389,-0.00163844,0.00003
 713,-0.00008594,-0.00035376,-0.00001391,-0.00001401,-0.00005109,0.0000
 1108,-0.00000648,-0.00002972,0.00003423,0.00002355,-0.00005169,-0.0002
 9338,-0.00047914,-0.00082263,0.04553794,0.03964990,-0.12297358,-0.0005
 8724,-0.00009133,0.00196576,0.00005440,0.00011959,0.00030392,-0.000082
 49,0.00003962,0.00011534,-0.00017208,-0.00008593,0.00031252,-0.0014092
 2,-0.00412403,0.00409047,0.02129544,-0.02245140,0.25428243\\-0.0000183
 8,0.00004176,0.00004203,0.00000359,-0.00002601,-0.00000979,-0.00001084
 ,-0.00001862,0.00000428,-0.00002130,0.00002448,-0.00004160,-0.00000345
 ,0.00002575,0.00000980,-0.00000283,-0.00000740,0.00001014,0.00001868,-
 0.00004156,-0.00004142,-0.00000986,-0.00000052,-0.00000860,0.00000198,
 0.00000894,0.00000040,0.00001109,0.00001881,-0.00000470,-0.00000270,-0
 .00000884,0.00000009,0.00000574,-0.00001161,-0.00000088,0.00002082,-0.
 00002484,0.00004146,0.00000393,0.00000600,-0.00001131,-0.00000589,0.00
 001189,0.00000071,-0.00000003,0.00000283,0.00001578,0.00000995,0.00000
 085,0.00000901,0.00000003,-0.00000207,-0.00001527,0.00000371,-0.000020
 90,0.00000434,-0.00000339,0.00002139,-0.00000492,0.00000205,0.00001285
 ,-0.00001489,-0.00000196,-0.00002023,-0.00001096,-0.00002250,0.0000002
 9,0.00002109,0.00000214,0.00002004,0.00001091,0.00000380,0.00000305,0.
 00000554,0.00000041,-0.00000194,-0.00000436,0.00002253,-0.00000012,-0.
 00002112,-0.00000368,-0.00000244,-0.00000537,-0.00000056,0.00000219,0.
 00000472,-0.00000207,-0.00001288,0.00001488,0.00002201,-0.00000038,0.0
 0000863,0.00001862,0.00000152,-0.00004198,0.00000199,0.00001294,0.0000
 2017,-0.00002221,-0.00000004,-0.00000854,-0.00001926,-0.00000194,0.000
 04198,-0.00000217,-0.00001320,-0.00002025\\\@


 Some scientists claim that hydrogen, because it is so
 plentiful, is the basic building block of the universe. 
 I dispute that. I say that stupidity is far more
 abundant than hydrogen, and THAT is the basic building 
 block of the universe.
                   --Frank Zappa
 Job cpu time:       0 days 12 hours 22 minutes 45.9 seconds.
 Elapsed time:       0 days  0 hours 30 minutes 59.7 seconds.
 File lengths (MBytes):  RWF=   3187 Int=      0 D2E=      0 Chk=     50 Scr=      1
 Normal termination of Gaussian 16 at Fri Jan  8 15:25:56 2021.
