Host machine: th27
Temporary directory: /tmp/gaussian_2989
Input file: 2_pyr_n5q7.gjf
Output file: 2_pyr_n5q7.log

 Entering Gaussian System, Link 0=g16
 Initial command:
 /home/export/gaussian/g16_a03/g16/l1.exe "/tmp/gaussian_2989/Gau-813.inp" -scrdir="/tmp/gaussian_2989/"
 Entering Link 1 = /home/export/gaussian/g16_a03/g16/l1.exe PID=       814.
  
 Copyright (c) 1988,1990,1992,1993,1995,1998,2003,2009,2016,
            Gaussian, Inc.  All Rights Reserved.
  
 This is part of the Gaussian(R) 16 program.  It is based on
 the Gaussian(R) 09 system (copyright 2009, Gaussian, Inc.),
 the Gaussian(R) 03 system (copyright 2003, Gaussian, Inc.),
 the Gaussian(R) 98 system (copyright 1998, Gaussian, Inc.),
 the Gaussian(R) 94 system (copyright 1995, Gaussian, Inc.),
 the Gaussian 92(TM) system (copyright 1992, Gaussian, Inc.),
 the Gaussian 90(TM) system (copyright 1990, Gaussian, Inc.),
 the Gaussian 88(TM) system (copyright 1988, Gaussian, Inc.),
 the Gaussian 86(TM) system (copyright 1986, Carnegie Mellon
 University), and the Gaussian 82(TM) system (copyright 1983,
 Carnegie Mellon University). Gaussian is a federally registered
 trademark of Gaussian, Inc.
  
 This software contains proprietary and confidential information,
 including trade secrets, belonging to Gaussian, Inc.
  
 This software is provided under written license and may be
 used, copied, transmitted, or stored only in accord with that
 written license.
  
 The following legend is applicable only to US Government
 contracts under FAR:
  
                    RESTRICTED RIGHTS LEGEND
  
 Use, reproduction and disclosure by the US Government is
 subject to restrictions as set forth in subparagraphs (a)
 and (c) of the Commercial Computer Software - Restricted
 Rights clause in FAR 52.227-19.
  
 Gaussian, Inc.
 340 Quinnipiac St., Bldg. 40, Wallingford CT 06492
  
  
 ---------------------------------------------------------------
 Warning -- This program may not be used in any manner that
 competes with the business of Gaussian, Inc. or will provide
 assistance to any competitor of Gaussian, Inc.  The licensee
 of this program is prohibited from giving any competitor of
 Gaussian, Inc. access to this program.  By using this program,
 the user acknowledges that Gaussian, Inc. is engaged in the
 business of creating and licensing software in the field of
 computational chemistry and represents and warrants to the
 licensee that it is not a competitor of Gaussian, Inc. and that
 it will not use this program in any manner prohibited above.
 ---------------------------------------------------------------
  

 Cite this work as:
 Gaussian 16, Revision A.03,
 M. J. Frisch, G. W. Trucks, H. B. Schlegel, G. E. Scuseria, 
 M. A. Robb, J. R. Cheeseman, G. Scalmani, V. Barone, 
 G. A. Petersson, H. Nakatsuji, X. Li, M. Caricato, A. V. Marenich, 
 J. Bloino, B. G. Janesko, R. Gomperts, B. Mennucci, H. P. Hratchian, 
 J. V. Ortiz, A. F. Izmaylov, J. L. Sonnenberg, D. Williams-Young, 
 F. Ding, F. Lipparini, F. Egidi, J. Goings, B. Peng, A. Petrone, 
 T. Henderson, D. Ranasinghe, V. G. Zakrzewski, J. Gao, N. Rega, 
 G. Zheng, W. Liang, M. Hada, M. Ehara, K. Toyota, R. Fukuda, 
 J. Hasegawa, M. Ishida, T. Nakajima, Y. Honda, O. Kitao, H. Nakai, 
 T. Vreven, K. Throssell, J. A. Montgomery, Jr., J. E. Peralta, 
 F. Ogliaro, M. J. Bearpark, J. J. Heyd, E. N. Brothers, K. N. Kudin, 
 V. N. Staroverov, T. A. Keith, R. Kobayashi, J. Normand, 
 K. Raghavachari, A. P. Rendell, J. C. Burant, S. S. Iyengar, 
 J. Tomasi, M. Cossi, J. M. Millam, M. Klene, C. Adamo, R. Cammi, 
 J. W. Ochterski, R. L. Martin, K. Morokuma, O. Farkas, 
 J. B. Foresman, and D. J. Fox, Gaussian, Inc., Wallingford CT, 2016.
 
 ******************************************
 Gaussian 16:  ES64L-G16RevA.03 25-Dec-2016
                 8-Jan-2021 
 ******************************************
 %nproc=24
 Will use up to   24 processors via shared memory.
 %chk=/home/peter/2_pyr_n5q7.chk
 %mem=96000MB
 -----------------------------------------------------
 # opt freq geom=connectivity int=ultrafine m062x tzvp
 -----------------------------------------------------
 1/18=20,19=15,26=4,38=1,57=2/1,3;
 2/9=110,12=2,17=6,18=5,40=1/2;
 3/5=19,7=101,11=2,25=1,30=1,71=1,74=-55,75=-5/1,2,3;
 4//1;
 5/5=2,38=5/2;
 6/7=2,8=2,9=2,10=2,28=1/1;
 7//1,2,3,16;
 1/18=20,19=15,26=4/3(2);
 2/9=110/2;
 99//99;
 2/9=110/2;
 3/5=19,7=101,11=2,25=1,30=1,71=1,74=-55,75=-5/1,2,3;
 4/5=5,16=3,69=1/1;
 5/5=2,38=5/2;
 7//1,2,3,16;
 1/18=20,19=15,26=4/3(-5);
 2/9=110/2;
 6/7=2,8=2,9=2,10=2,19=2,28=1/1;
 99/9=1/99;
 -------------------
 Title Card Required
 -------------------
 Symbolic Z-matrix:
 Charge =  0 Multiplicity = 1
 Mg                   -1.88848   2.24237  -0.22669 
 Cl                   -0.00046   1.29465   1.22527 
 Cl                    0.00085   3.42879  -1.35515 
 Cl                   -3.64695   1.27361   1.21804 
 Mg                    1.88845   2.2411   -0.22573 
 Mg                   -0.00039  -0.92128   0.0293 
 Cl                   -1.80452   0.02859  -1.38645 
 Cl                    1.8049    0.02783  -1.38561 
 Mg                   -3.70966  -0.97305   0.04495 
 Mg                    3.70942  -0.9735    0.04644 
 Cl                    1.80566  -1.94804   1.41191 
 Cl                   -1.80614  -1.94769   1.41156 
 Cl                    3.64703   1.27342   1.219 
 Cl                    5.51096  -1.79046   1.37572 
 Cl                   -5.51086  -1.79013   1.37507 
 Cl                    1.92729   4.45727   1.13378 
 Cl                   -1.92676   4.45804   1.13194 
 Cl                    3.75122   3.01029  -1.60828 
 Cl                   -3.75189   3.01057  -1.6087 
 Cl                    5.41399   0.07643  -1.42071 
 Cl                   -5.41471   0.07689  -1.42109 
 Cl                   -7.02777   1.15738   1.17884 
 Cl                    7.02765   1.15721   1.17852 
 Cl                    8.16428  -2.60519  -1.72527 
 Cl                   -8.16527  -2.60448  -1.72514 
 Cl                    0.00007  -3.14134  -1.17892 
 Cl                    3.38202  -3.12726  -1.25665 
 Cl                   -0.00031  -4.77768   1.57584 
 Cl                   -3.38165  -3.12676  -1.25726 
 Al                   -5.62099   2.38795  -0.22084 
 Al                    0.00094   5.47227   0.49792 
 Al                    5.62085   2.38772  -0.22132 
 Al                    7.4372   -1.15644  -0.0795 
 Al                    1.95399  -4.27113   0.16924 
 Al                   -1.95398  -4.27105   0.16897 
 Al                   -7.43752  -1.15619  -0.07926 
 Cl                   -6.81082   4.28182  -0.34404 
 Cl                    0.00191   7.46828  -0.51872 
 Cl                    6.81099   4.28131  -0.34579 
 Cl                    9.53949  -1.56468   0.57725 
 Cl                    3.09338  -6.19531   0.29942 
 Cl                   -3.0934   -6.19522   0.29889 
 Cl                   -9.53941  -1.56496   0.57845 
 

 GradGradGradGradGradGradGradGradGradGradGradGradGradGradGradGradGradGrad
 Berny optimization.
 Initialization pass.
                           ----------------------------
                           !    Initial Parameters    !
                           ! (Angstroms and Degrees)  !
 --------------------------                            --------------------------
 ! Name  Definition              Value          Derivative Info.                !
 --------------------------------------------------------------------------------
 ! R1    R(1,2)                  2.5634         estimate D2E/DX2                !
 ! R2    R(1,3)                  2.5001         estimate D2E/DX2                !
 ! R3    R(1,4)                  2.4734         estimate D2E/DX2                !
 ! R4    R(1,7)                  2.5006         estimate D2E/DX2                !
 ! R5    R(1,17)                 2.5993         estimate D2E/DX2                !
 ! R6    R(1,19)                 2.4438         estimate D2E/DX2                !
 ! R7    R(2,5)                  2.563          estimate D2E/DX2                !
 ! R8    R(2,6)                  2.5181         estimate D2E/DX2                !
 ! R9    R(3,5)                  2.4998         estimate D2E/DX2                !
 ! R10   R(3,31)                 2.7586         estimate D2E/DX2                !
 ! R11   R(4,9)                  2.5353         estimate D2E/DX2                !
 ! R12   R(4,30)                 2.6849         estimate D2E/DX2                !
 ! R13   R(5,8)                  2.5002         estimate D2E/DX2                !
 ! R14   R(5,13)                 2.4731         estimate D2E/DX2                !
 ! R15   R(5,16)                 2.6002         estimate D2E/DX2                !
 ! R16   R(5,18)                 2.444          estimate D2E/DX2                !
 ! R17   R(6,7)                  2.4822         estimate D2E/DX2                !
 ! R18   R(6,8)                  2.4823         estimate D2E/DX2                !
 ! R19   R(6,11)                 2.4955         estimate D2E/DX2                !
 ! R20   R(6,12)                 2.495          estimate D2E/DX2                !
 ! R21   R(6,26)                 2.5275         estimate D2E/DX2                !
 ! R22   R(7,9)                  2.5849         estimate D2E/DX2                !
 ! R23   R(8,10)                 2.5847         estimate D2E/DX2                !
 ! R24   R(9,12)                 2.5379         estimate D2E/DX2                !
 ! R25   R(9,15)                 2.3835         estimate D2E/DX2                !
 ! R26   R(9,21)                 2.4817         estimate D2E/DX2                !
 ! R27   R(9,29)                 2.5381         estimate D2E/DX2                !
 ! R28   R(10,11)                2.5374         estimate D2E/DX2                !
 ! R29   R(10,13)                2.5352         estimate D2E/DX2                !
 ! R30   R(10,14)                2.3833         estimate D2E/DX2                !
 ! R31   R(10,20)                2.482          estimate D2E/DX2                !
 ! R32   R(10,27)                2.5385         estimate D2E/DX2                !
 ! R33   R(11,34)                2.6387         estimate D2E/DX2                !
 ! R34   R(12,35)                2.6389         estimate D2E/DX2                !
 ! R35   R(13,32)                2.6856         estimate D2E/DX2                !
 ! R36   R(14,33)                2.496          estimate D2E/DX2                !
 ! R37   R(15,36)                2.4958         estimate D2E/DX2                !
 ! R38   R(16,31)                2.2683         estimate D2E/DX2                !
 ! R39   R(17,31)                2.2686         estimate D2E/DX2                !
 ! R40   R(18,32)                2.4097         estimate D2E/DX2                !
 ! R41   R(19,30)                2.4099         estimate D2E/DX2                !
 ! R42   R(20,32)                2.6122         estimate D2E/DX2                !
 ! R43   R(20,33)                2.7225         estimate D2E/DX2                !
 ! R44   R(21,30)                2.6123         estimate D2E/DX2                !
 ! R45   R(21,36)                2.7226         estimate D2E/DX2                !
 ! R46   R(22,30)                2.335          estimate D2E/DX2                !
 ! R47   R(22,36)                2.6652         estimate D2E/DX2                !
 ! R48   R(23,32)                2.3351         estimate D2E/DX2                !
 ! R49   R(23,33)                2.6652         estimate D2E/DX2                !
 ! R50   R(24,33)                2.31           estimate D2E/DX2                !
 ! R51   R(25,36)                2.31           estimate D2E/DX2                !
 ! R52   R(26,34)                2.629          estimate D2E/DX2                !
 ! R53   R(26,35)                2.6289         estimate D2E/DX2                !
 ! R54   R(27,34)                2.3197         estimate D2E/DX2                !
 ! R55   R(28,34)                2.4606         estimate D2E/DX2                !
 ! R56   R(28,35)                2.4602         estimate D2E/DX2                !
 ! R57   R(29,35)                2.3199         estimate D2E/DX2                !
 ! R58   R(30,37)                2.24           estimate D2E/DX2                !
 ! R59   R(31,38)                2.24           estimate D2E/DX2                !
 ! R60   R(32,39)                2.24           estimate D2E/DX2                !
 ! R61   R(33,40)                2.24           estimate D2E/DX2                !
 ! R62   R(34,41)                2.24           estimate D2E/DX2                !
 ! R63   R(35,42)                2.24           estimate D2E/DX2                !
 ! R64   R(36,43)                2.24           estimate D2E/DX2                !
 ! A1    A(2,1,3)               82.7908         estimate D2E/DX2                !
 ! A2    A(2,1,4)               92.7502         estimate D2E/DX2                !
 ! A3    A(2,1,7)               84.8746         estimate D2E/DX2                !
 ! A4    A(2,1,17)              91.7151         estimate D2E/DX2                !
 ! A5    A(3,1,7)              100.6848         estimate D2E/DX2                !
 ! A6    A(3,1,17)              80.9407         estimate D2E/DX2                !
 ! A7    A(3,1,19)              99.8922         estimate D2E/DX2                !
 ! A8    A(4,1,7)               87.0211         estimate D2E/DX2                !
 ! A9    A(4,1,17)              91.0363         estimate D2E/DX2                !
 ! A10   A(4,1,19)              84.9138         estimate D2E/DX2                !
 ! A11   A(7,1,19)              92.3849         estimate D2E/DX2                !
 ! A12   A(17,1,19)             90.9401         estimate D2E/DX2                !
 ! A13   A(1,2,5)               94.9119         estimate D2E/DX2                !
 ! A14   A(1,2,6)               93.2301         estimate D2E/DX2                !
 ! A15   A(5,2,6)               93.2136         estimate D2E/DX2                !
 ! A16   A(1,3,5)               98.1194         estimate D2E/DX2                !
 ! A17   A(1,3,31)              92.7717         estimate D2E/DX2                !
 ! A18   A(5,3,31)              92.776          estimate D2E/DX2                !
 ! A19   A(1,4,9)               95.4165         estimate D2E/DX2                !
 ! A20   A(1,4,30)              92.7011         estimate D2E/DX2                !
 ! A21   A(9,4,30)              95.8331         estimate D2E/DX2                !
 ! A22   A(2,5,3)               82.8036         estimate D2E/DX2                !
 ! A23   A(2,5,8)               84.9006         estimate D2E/DX2                !
 ! A24   A(2,5,13)              92.7999         estimate D2E/DX2                !
 ! A25   A(2,5,16)              91.7042         estimate D2E/DX2                !
 ! A26   A(3,5,8)              100.7051         estimate D2E/DX2                !
 ! A27   A(3,5,16)              80.9418         estimate D2E/DX2                !
 ! A28   A(3,5,18)              99.8117         estimate D2E/DX2                !
 ! A29   A(8,5,13)              87.0419         estimate D2E/DX2                !
 ! A30   A(8,5,18)              92.3866         estimate D2E/DX2                !
 ! A31   A(13,5,16)             90.9991         estimate D2E/DX2                !
 ! A32   A(13,5,18)             84.9306         estimate D2E/DX2                !
 ! A33   A(16,5,18)             90.9251         estimate D2E/DX2                !
 ! A34   A(2,6,7)               86.2227         estimate D2E/DX2                !
 ! A35   A(2,6,8)               86.2312         estimate D2E/DX2                !
 ! A36   A(2,6,11)              95.6787         estimate D2E/DX2                !
 ! A37   A(2,6,12)              95.6747         estimate D2E/DX2                !
 ! A38   A(7,6,8)               93.2775         estimate D2E/DX2                !
 ! A39   A(7,6,12)              86.9834         estimate D2E/DX2                !
 ! A40   A(7,6,26)              93.6469         estimate D2E/DX2                !
 ! A41   A(8,6,11)              86.9493         estimate D2E/DX2                !
 ! A42   A(8,6,26)              93.6253         estimate D2E/DX2                !
 ! A43   A(11,6,12)             92.7276         estimate D2E/DX2                !
 ! A44   A(11,6,26)             84.4519         estimate D2E/DX2                !
 ! A45   A(12,6,26)             84.4692         estimate D2E/DX2                !
 ! A46   A(1,7,6)               95.6617         estimate D2E/DX2                !
 ! A47   A(1,7,9)               93.5246         estimate D2E/DX2                !
 ! A48   A(6,7,9)               94.1038         estimate D2E/DX2                !
 ! A49   A(5,8,6)               95.6437         estimate D2E/DX2                !
 ! A50   A(5,8,10)              93.5139         estimate D2E/DX2                !
 ! A51   A(6,8,10)              94.1257         estimate D2E/DX2                !
 ! A52   A(4,9,7)               83.9504         estimate D2E/DX2                !
 ! A53   A(4,9,12)              94.1637         estimate D2E/DX2                !
 ! A54   A(4,9,15)              93.6843         estimate D2E/DX2                !
 ! A55   A(4,9,21)              85.1484         estimate D2E/DX2                !
 ! A56   A(7,9,12)              83.9268         estimate D2E/DX2                !
 ! A57   A(7,9,21)              90.8771         estimate D2E/DX2                !
 ! A58   A(7,9,29)              87.1024         estimate D2E/DX2                !
 ! A59   A(12,9,15)             97.7383         estimate D2E/DX2                !
 ! A60   A(12,9,29)             81.574          estimate D2E/DX2                !
 ! A61   A(15,9,21)             87.4493         estimate D2E/DX2                !
 ! A62   A(15,9,29)             95.3414         estimate D2E/DX2                !
 ! A63   A(21,9,29)             98.32           estimate D2E/DX2                !
 ! A64   A(8,10,11)             83.9214         estimate D2E/DX2                !
 ! A65   A(8,10,13)             83.9596         estimate D2E/DX2                !
 ! A66   A(8,10,20)             90.8397         estimate D2E/DX2                !
 ! A67   A(8,10,27)             87.0908         estimate D2E/DX2                !
 ! A68   A(11,10,13)            94.1883         estimate D2E/DX2                !
 ! A69   A(11,10,14)            97.7783         estimate D2E/DX2                !
 ! A70   A(11,10,27)            81.5825         estimate D2E/DX2                !
 ! A71   A(13,10,14)            93.6949         estimate D2E/DX2                !
 ! A72   A(13,10,20)            85.1464         estimate D2E/DX2                !
 ! A73   A(14,10,20)            87.4533         estimate D2E/DX2                !
 ! A74   A(14,10,27)            95.3344         estimate D2E/DX2                !
 ! A75   A(20,10,27)            98.2817         estimate D2E/DX2                !
 ! A76   A(6,11,10)             94.9809         estimate D2E/DX2                !
 ! A77   A(6,11,34)             98.1633         estimate D2E/DX2                !
 ! A78   A(10,11,34)            92.4373         estimate D2E/DX2                !
 ! A79   A(6,12,9)              94.9639         estimate D2E/DX2                !
 ! A80   A(6,12,35)             98.1564         estimate D2E/DX2                !
 ! A81   A(9,12,35)             92.4381         estimate D2E/DX2                !
 ! A82   A(5,13,10)             95.3993         estimate D2E/DX2                !
 ! A83   A(5,13,32)             92.692          estimate D2E/DX2                !
 ! A84   A(10,13,32)            95.8312         estimate D2E/DX2                !
 ! A85   A(10,14,33)            99.8518         estimate D2E/DX2                !
 ! A86   A(9,15,36)             99.8524         estimate D2E/DX2                !
 ! A87   A(5,16,31)            102.834          estimate D2E/DX2                !
 ! A88   A(1,17,31)            102.8554         estimate D2E/DX2                !
 ! A89   A(5,18,32)            100.6292         estimate D2E/DX2                !
 ! A90   A(1,19,30)            100.6317         estimate D2E/DX2                !
 ! A91   A(10,20,32)            99.0482         estimate D2E/DX2                !
 ! A92   A(10,20,33)            91.5818         estimate D2E/DX2                !
 ! A93   A(32,20,33)            96.6402         estimate D2E/DX2                !
 ! A94   A(9,21,30)             99.0393         estimate D2E/DX2                !
 ! A95   A(9,21,36)             91.5872         estimate D2E/DX2                !
 ! A96   A(30,21,36)            96.6359         estimate D2E/DX2                !
 ! A97   A(30,22,36)           105.4943         estimate D2E/DX2                !
 ! A98   A(32,23,33)           105.4896         estimate D2E/DX2                !
 ! A99   A(6,26,34)             97.6123         estimate D2E/DX2                !
 ! A100  A(6,26,35)             97.5979         estimate D2E/DX2                !
 ! A101  A(34,26,35)            96.0176         estimate D2E/DX2                !
 ! A102  A(10,27,34)           100.5003         estimate D2E/DX2                !
 ! A103  A(34,28,35)           105.1543         estimate D2E/DX2                !
 ! A104  A(9,29,35)            100.5247         estimate D2E/DX2                !
 ! A105  A(4,30,19)             81.119          estimate D2E/DX2                !
 ! A106  A(4,30,21)             79.6886         estimate D2E/DX2                !
 ! A107  A(4,30,22)             84.4331         estimate D2E/DX2                !
 ! A108  A(4,30,37)            140.4353         estimate D2E/DX2                !
 ! A109  A(19,30,21)            84.4172         estimate D2E/DX2                !
 ! A110  A(19,30,22)           161.5592         estimate D2E/DX2                !
 ! A111  A(19,30,37)            99.3152         estimate D2E/DX2                !
 ! A112  A(21,30,22)            81.7644         estimate D2E/DX2                !
 ! A113  A(21,30,37)           139.8757         estimate D2E/DX2                !
 ! A114  A(22,30,37)            99.1212         estimate D2E/DX2                !
 ! A115  A(3,31,16)             81.7704         estimate D2E/DX2                !
 ! A116  A(3,31,17)             81.7514         estimate D2E/DX2                !
 ! A117  A(3,31,38)            110.8064         estimate D2E/DX2                !
 ! A118  A(16,31,17)           116.3095         estimate D2E/DX2                !
 ! A119  A(16,31,38)           121.7075         estimate D2E/DX2                !
 ! A120  A(17,31,38)           121.7072         estimate D2E/DX2                !
 ! A121  A(13,32,18)            81.1203         estimate D2E/DX2                !
 ! A122  A(13,32,20)            79.6835         estimate D2E/DX2                !
 ! A123  A(13,32,23)            84.4122         estimate D2E/DX2                !
 ! A124  A(13,32,39)           140.4496         estimate D2E/DX2                !
 ! A125  A(18,32,20)            84.4266         estimate D2E/DX2                !
 ! A126  A(18,32,23)           161.5505         estimate D2E/DX2                !
 ! A127  A(18,32,39)            99.3141         estimate D2E/DX2                !
 ! A128  A(20,32,23)            81.761          estimate D2E/DX2                !
 ! A129  A(20,32,39)           139.8666         estimate D2E/DX2                !
 ! A130  A(23,32,39)            99.1306         estimate D2E/DX2                !
 ! A131  A(14,33,20)            80.1392         estimate D2E/DX2                !
 ! A132  A(14,33,23)            80.0218         estimate D2E/DX2                !
 ! A133  A(14,33,24)           119.932          estimate D2E/DX2                !
 ! A134  A(14,33,40)           120.4677         estimate D2E/DX2                !
 ! A135  A(20,33,23)            74.0518         estimate D2E/DX2                !
 ! A136  A(20,33,24)            99.6094         estimate D2E/DX2                !
 ! A137  A(20,33,40)           157.5802         estimate D2E/DX2                !
 ! A138  A(23,33,24)           158.2944         estimate D2E/DX2                !
 ! A139  A(23,33,40)            99.4413         estimate D2E/DX2                !
 ! A140  A(24,33,40)            78.4151         estimate D2E/DX2                !
 ! A141  A(11,34,26)            79.7106         estimate D2E/DX2                !
 ! A142  A(11,34,27)            83.682          estimate D2E/DX2                !
 ! A143  A(11,34,28)            82.3791         estimate D2E/DX2                !
 ! A144  A(11,34,41)           139.2422         estimate D2E/DX2                !
 ! A145  A(26,34,27)            86.0093         estimate D2E/DX2                !
 ! A146  A(26,34,28)            77.9549         estimate D2E/DX2                !
 ! A147  A(26,34,41)           140.9856         estimate D2E/DX2                !
 ! A148  A(27,34,28)           160.3666         estimate D2E/DX2                !
 ! A149  A(27,34,41)            98.4056         estimate D2E/DX2                !
 ! A150  A(28,34,41)           101.1826         estimate D2E/DX2                !
 ! A151  A(12,35,26)            79.7144         estimate D2E/DX2                !
 ! A152  A(12,35,28)            82.3888         estimate D2E/DX2                !
 ! A153  A(12,35,29)            83.6669         estimate D2E/DX2                !
 ! A154  A(12,35,42)           139.2421         estimate D2E/DX2                !
 ! A155  A(26,35,28)            77.962          estimate D2E/DX2                !
 ! A156  A(26,35,29)            86.0006         estimate D2E/DX2                !
 ! A157  A(26,35,42)           140.9825         estimate D2E/DX2                !
 ! A158  A(28,35,29)           160.3618         estimate D2E/DX2                !
 ! A159  A(28,35,42)           101.1791         estimate D2E/DX2                !
 ! A160  A(29,35,42)            98.4141         estimate D2E/DX2                !
 ! A161  A(15,36,21)            80.1358         estimate D2E/DX2                !
 ! A162  A(15,36,22)            80.0228         estimate D2E/DX2                !
 ! A163  A(15,36,25)           119.9428         estimate D2E/DX2                !
 ! A164  A(15,36,43)           120.4589         estimate D2E/DX2                !
 ! A165  A(21,36,22)            74.0544         estimate D2E/DX2                !
 ! A166  A(21,36,25)            99.6053         estimate D2E/DX2                !
 ! A167  A(21,36,43)           157.594          estimate D2E/DX2                !
 ! A168  A(22,36,25)           158.2819         estimate D2E/DX2                !
 ! A169  A(22,36,43)            99.4433         estimate D2E/DX2                !
 ! A170  A(25,36,43)            78.4147         estimate D2E/DX2                !
 ! A171  L(2,1,19,3,-1)        182.683          estimate D2E/DX2                !
 ! A172  L(3,1,4,2,-1)         175.541          estimate D2E/DX2                !
 ! A173  L(7,1,17,2,-1)        176.5897         estimate D2E/DX2                !
 ! A174  L(2,5,18,3,-1)        182.6153         estimate D2E/DX2                !
 ! A175  L(3,5,13,2,-1)        175.6035         estimate D2E/DX2                !
 ! A176  L(8,5,16,2,-1)        176.6048         estimate D2E/DX2                !
 ! A177  L(2,6,26,7,-1)        179.8696         estimate D2E/DX2                !
 ! A178  L(7,6,11,2,-1)        181.9014         estimate D2E/DX2                !
 ! A179  L(8,6,12,2,-1)        181.9059         estimate D2E/DX2                !
 ! A180  L(4,9,29,7,-1)        171.0528         estimate D2E/DX2                !
 ! A181  L(7,9,15,4,-1)        177.6348         estimate D2E/DX2                !
 ! A182  L(12,9,21,4,-1)       179.3121         estimate D2E/DX2                !
 ! A183  L(8,10,14,11,-1)      181.6997         estimate D2E/DX2                !
 ! A184  L(11,10,20,8,-1)      174.7611         estimate D2E/DX2                !
 ! A185  L(13,10,27,8,-1)      171.0504         estimate D2E/DX2                !
 ! A186  L(2,1,19,3,-2)        177.7197         estimate D2E/DX2                !
 ! A187  L(3,1,4,2,-2)         171.7643         estimate D2E/DX2                !
 ! A188  L(7,1,17,2,-2)        182.1212         estimate D2E/DX2                !
 ! A189  L(2,5,18,3,-2)        182.2647         estimate D2E/DX2                !
 ! A190  L(3,5,13,2,-2)        188.2687         estimate D2E/DX2                !
 ! A191  L(8,5,16,2,-2)        177.8603         estimate D2E/DX2                !
 ! A192  L(2,6,26,7,-2)        179.8478         estimate D2E/DX2                !
 ! A193  L(7,6,11,2,-2)        179.9069         estimate D2E/DX2                !
 ! A194  L(8,6,12,2,-2)        180.1269         estimate D2E/DX2                !
 ! A195  L(4,9,29,7,-2)        176.6859         estimate D2E/DX2                !
 ! A196  L(7,9,15,4,-2)        178.5221         estimate D2E/DX2                !
 ! A197  L(12,9,21,4,-2)       174.8324         estimate D2E/DX2                !
 ! A198  L(8,10,14,11,-2)      182.2268         estimate D2E/DX2                !
 ! A199  L(11,10,20,8,-2)      179.9128         estimate D2E/DX2                !
 ! A200  L(13,10,27,8,-2)      183.2798         estimate D2E/DX2                !
 ! D1    D(3,1,2,5)             -8.7479         estimate D2E/DX2                !
 ! D2    D(3,1,2,6)           -102.2569         estimate D2E/DX2                !
 ! D3    D(4,1,2,5)            179.4878         estimate D2E/DX2                !
 ! D4    D(4,1,2,6)             85.9788         estimate D2E/DX2                !
 ! D5    D(7,1,2,5)             92.7293         estimate D2E/DX2                !
 ! D6    D(7,1,2,6)             -0.7796         estimate D2E/DX2                !
 ! D7    D(17,1,2,5)           -89.3918         estimate D2E/DX2                !
 ! D8    D(17,1,2,6)           177.0992         estimate D2E/DX2                !
 ! D9    D(1,2,18,32)          174.1957         estimate D2E/DX2                !
 ! D10   D(6,2,18,32)          -92.3566         estimate D2E/DX2                !
 ! D11   D(5,2,19,30)         -174.1992         estimate D2E/DX2                !
 ! D12   D(6,2,19,30)           92.3682         estimate D2E/DX2                !
 ! D13   D(2,1,3,5)              9.0289         estimate D2E/DX2                !
 ! D14   D(2,1,3,31)           -84.1748         estimate D2E/DX2                !
 ! D15   D(7,1,3,5)            -74.3385         estimate D2E/DX2                !
 ! D16   D(7,1,3,31)          -167.5422         estimate D2E/DX2                !
 ! D17   D(17,1,3,5)           101.936          estimate D2E/DX2                !
 ! D18   D(17,1,3,31)            8.7324         estimate D2E/DX2                !
 ! D19   D(19,1,3,5)          -168.6908         estimate D2E/DX2                !
 ! D20   D(19,1,3,31)           98.1055         estimate D2E/DX2                !
 ! D21   D(1,2,26,34)          178.9488         estimate D2E/DX2                !
 ! D22   D(1,2,26,35)          -83.8775         estimate D2E/DX2                !
 ! D23   D(5,2,26,34)           83.8473         estimate D2E/DX2                !
 ! D24   D(5,2,26,35)         -178.979          estimate D2E/DX2                !
 ! D25   D(5,3,4,9)            -77.5075         estimate D2E/DX2                !
 ! D26   D(5,3,4,30)          -174.2295         estimate D2E/DX2                !
 ! D27   D(31,3,4,9)          -170.1268         estimate D2E/DX2                !
 ! D28   D(31,3,4,30)           93.1512         estimate D2E/DX2                !
 ! D29   D(2,1,4,9)            -87.0112         estimate D2E/DX2                !
 ! D30   D(2,1,4,30)           176.8652         estimate D2E/DX2                !
 ! D31   D(7,1,4,9)             -2.2933         estimate D2E/DX2                !
 ! D32   D(7,1,4,30)           -98.4169         estimate D2E/DX2                !
 ! D33   D(17,1,4,9)          -178.7784         estimate D2E/DX2                !
 ! D34   D(17,1,4,30)           85.098          estimate D2E/DX2                !
 ! D35   D(19,1,4,9)            90.3699         estimate D2E/DX2                !
 ! D36   D(19,1,4,30)           -5.7537         estimate D2E/DX2                !
 ! D37   D(2,1,7,6)              0.7935         estimate D2E/DX2                !
 ! D38   D(2,1,7,9)             95.2761         estimate D2E/DX2                !
 ! D39   D(3,1,7,6)             82.448          estimate D2E/DX2                !
 ! D40   D(3,1,7,9)            176.9306         estimate D2E/DX2                !
 ! D41   D(4,1,7,6)            -92.2393         estimate D2E/DX2                !
 ! D42   D(4,1,7,9)              2.2434         estimate D2E/DX2                !
 ! D43   D(19,1,7,6)          -177.017          estimate D2E/DX2                !
 ! D44   D(19,1,7,9)           -82.5344         estimate D2E/DX2                !
 ! D45   D(1,3,13,10)           77.5052         estimate D2E/DX2                !
 ! D46   D(1,3,13,32)          174.2181         estimate D2E/DX2                !
 ! D47   D(31,3,13,10)         170.1184         estimate D2E/DX2                !
 ! D48   D(31,3,13,32)         -93.1686         estimate D2E/DX2                !
 ! D49   D(1,4,29,35)           96.5132         estimate D2E/DX2                !
 ! D50   D(30,4,29,35)        -170.6192         estimate D2E/DX2                !
 ! D51   D(1,7,11,10)          -85.6231         estimate D2E/DX2                !
 ! D52   D(1,7,11,34)         -178.7398         estimate D2E/DX2                !
 ! D53   D(9,7,11,10)         -179.6429         estimate D2E/DX2                !
 ! D54   D(9,7,11,34)           87.2404         estimate D2E/DX2                !
 ! D55   D(1,7,15,36)           90.7496         estimate D2E/DX2                !
 ! D56   D(6,7,15,36)         -173.36           estimate D2E/DX2                !
 ! D57   D(6,7,17,31)           71.828          estimate D2E/DX2                !
 ! D58   D(9,7,17,31)          166.1243         estimate D2E/DX2                !
 ! D59   D(2,1,17,31)           71.5181         estimate D2E/DX2                !
 ! D60   D(3,1,17,31)          -10.902          estimate D2E/DX2                !
 ! D61   D(4,1,17,31)          164.301          estimate D2E/DX2                !
 ! D62   D(19,1,17,31)        -110.7696         estimate D2E/DX2                !
 ! D63   D(3,1,19,30)         -165.4061         estimate D2E/DX2                !
 ! D64   D(4,1,19,30)            6.5184         estimate D2E/DX2                !
 ! D65   D(7,1,19,30)           93.3124         estimate D2E/DX2                !
 ! D66   D(17,1,19,30)         -84.4385         estimate D2E/DX2                !
 ! D67   D(1,2,5,3)              8.7486         estimate D2E/DX2                !
 ! D68   D(1,2,5,8)            -92.744          estimate D2E/DX2                !
 ! D69   D(1,2,5,13)          -179.5201         estimate D2E/DX2                !
 ! D70   D(1,2,5,16)            89.3958         estimate D2E/DX2                !
 ! D71   D(6,2,5,3)            102.2728         estimate D2E/DX2                !
 ! D72   D(6,2,5,8)              0.7802         estimate D2E/DX2                !
 ! D73   D(6,2,5,13)           -85.996          estimate D2E/DX2                !
 ! D74   D(6,2,5,16)          -177.0801         estimate D2E/DX2                !
 ! D75   D(1,2,6,7)              0.7839         estimate D2E/DX2                !
 ! D76   D(1,2,6,8)             94.3254         estimate D2E/DX2                !
 ! D77   D(1,2,6,11)          -179.1229         estimate D2E/DX2                !
 ! D78   D(1,2,6,12)           -85.8015         estimate D2E/DX2                !
 ! D79   D(5,2,6,7)            -94.3258         estimate D2E/DX2                !
 ! D80   D(5,2,6,8)             -0.7844         estimate D2E/DX2                !
 ! D81   D(5,2,6,11)            85.7673         estimate D2E/DX2                !
 ! D82   D(5,2,6,12)           179.0888         estimate D2E/DX2                !
 ! D83   D(1,3,5,2)             -9.0299         estimate D2E/DX2                !
 ! D84   D(1,3,5,8)             74.3638         estimate D2E/DX2                !
 ! D85   D(1,3,5,16)          -101.9237         estimate D2E/DX2                !
 ! D86   D(1,3,5,18)           168.7054         estimate D2E/DX2                !
 ! D87   D(31,3,5,2)            84.17           estimate D2E/DX2                !
 ! D88   D(31,3,5,8)           167.5638         estimate D2E/DX2                !
 ! D89   D(31,3,5,16)           -8.7237         estimate D2E/DX2                !
 ! D90   D(31,3,5,18)          -98.0947         estimate D2E/DX2                !
 ! D91   D(1,3,31,16)          108.2646         estimate D2E/DX2                !
 ! D92   D(1,3,31,17)           -9.9958         estimate D2E/DX2                !
 ! D93   D(1,3,31,38)         -130.8621         estimate D2E/DX2                !
 ! D94   D(5,3,31,16)            9.9902         estimate D2E/DX2                !
 ! D95   D(5,3,31,17)         -108.2703         estimate D2E/DX2                !
 ! D96   D(5,3,31,38)          130.8635         estimate D2E/DX2                !
 ! D97   D(1,4,9,7)              2.2278         estimate D2E/DX2                !
 ! D98   D(1,4,9,12)            85.6595         estimate D2E/DX2                !
 ! D99   D(1,4,9,15)          -176.2943         estimate D2E/DX2                !
 ! D100  D(1,4,9,21)           -89.1729         estimate D2E/DX2                !
 ! D101  D(30,4,9,7)            95.511          estimate D2E/DX2                !
 ! D102  D(30,4,9,12)          178.9427         estimate D2E/DX2                !
 ! D103  D(30,4,9,15)          -83.0111         estimate D2E/DX2                !
 ! D104  D(30,4,9,21)            4.1102         estimate D2E/DX2                !
 ! D105  D(1,4,30,19)            5.8829         estimate D2E/DX2                !
 ! D106  D(1,4,30,21)           91.7739         estimate D2E/DX2                !
 ! D107  D(1,4,30,22)          174.388          estimate D2E/DX2                !
 ! D108  D(1,4,30,37)          -88.0216         estimate D2E/DX2                !
 ! D109  D(9,4,30,19)          -89.8455         estimate D2E/DX2                !
 ! D110  D(9,4,30,21)           -3.9544         estimate D2E/DX2                !
 ! D111  D(9,4,30,22)           78.6596         estimate D2E/DX2                !
 ! D112  D(9,4,30,37)          176.2501         estimate D2E/DX2                !
 ! D113  D(2,5,8,6)             -0.794          estimate D2E/DX2                !
 ! D114  D(2,5,8,10)           -95.2964         estimate D2E/DX2                !
 ! D115  D(3,5,8,6)            -82.4645         estimate D2E/DX2                !
 ! D116  D(3,5,8,10)          -176.9668         estimate D2E/DX2                !
 ! D117  D(13,5,8,6)            92.2853         estimate D2E/DX2                !
 ! D118  D(13,5,8,10)           -2.217          estimate D2E/DX2                !
 ! D119  D(18,5,8,6)           177.0808         estimate D2E/DX2                !
 ! D120  D(18,5,8,10)           82.5784         estimate D2E/DX2                !
 ! D121  D(5,8,12,9)            85.6336         estimate D2E/DX2                !
 ! D122  D(5,8,12,35)          178.7502         estimate D2E/DX2                !
 ! D123  D(10,8,12,9)          179.642          estimate D2E/DX2                !
 ! D124  D(10,8,12,35)         -87.2414         estimate D2E/DX2                !
 ! D125  D(5,8,14,33)          -90.7713         estimate D2E/DX2                !
 ! D126  D(6,8,14,33)          173.3547         estimate D2E/DX2                !
 ! D127  D(6,8,16,31)          -71.8555         estimate D2E/DX2                !
 ! D128  D(10,8,16,31)        -166.1718         estimate D2E/DX2                !
 ! D129  D(2,5,13,10)           87.0084         estimate D2E/DX2                !
 ! D130  D(2,5,13,32)         -176.8718         estimate D2E/DX2                !
 ! D131  D(8,5,13,10)            2.2661         estimate D2E/DX2                !
 ! D132  D(8,5,13,32)           98.3859         estimate D2E/DX2                !
 ! D133  D(16,5,13,10)         178.7638         estimate D2E/DX2                !
 ! D134  D(16,5,13,32)         -85.1164         estimate D2E/DX2                !
 ! D135  D(18,5,13,10)         -90.396          estimate D2E/DX2                !
 ! D136  D(18,5,13,32)           5.7238         estimate D2E/DX2                !
 ! D137  D(2,5,16,31)          -71.5433         estimate D2E/DX2                !
 ! D138  D(3,5,16,31)           10.8916         estimate D2E/DX2                !
 ! D139  D(13,5,16,31)        -164.3746         estimate D2E/DX2                !
 ! D140  D(18,5,16,31)         110.6801         estimate D2E/DX2                !
 ! D141  D(3,5,18,32)          165.4018         estimate D2E/DX2                !
 ! D142  D(8,5,18,32)          -93.3018         estimate D2E/DX2                !
 ! D143  D(13,5,18,32)          -6.4863         estimate D2E/DX2                !
 ! D144  D(16,5,18,32)          84.4348         estimate D2E/DX2                !
 ! D145  D(2,6,7,1)             -0.8063         estimate D2E/DX2                !
 ! D146  D(2,6,7,9)            -94.7657         estimate D2E/DX2                !
 ! D147  D(8,6,7,1)            -86.806          estimate D2E/DX2                !
 ! D148  D(8,6,7,9)            179.2346         estimate D2E/DX2                !
 ! D149  D(12,6,7,1)            95.0891         estimate D2E/DX2                !
 ! D150  D(12,6,7,9)             1.1296         estimate D2E/DX2                !
 ! D151  D(26,6,7,1)           179.3459         estimate D2E/DX2                !
 ! D152  D(26,6,7,9)            85.3864         estimate D2E/DX2                !
 ! D153  D(2,6,8,5)              0.8067         estimate D2E/DX2                !
 ! D154  D(2,6,8,10)            94.7563         estimate D2E/DX2                !
 ! D155  D(7,6,8,5)             86.7984         estimate D2E/DX2                !
 ! D156  D(7,6,8,10)          -179.2521         estimate D2E/DX2                !
 ! D157  D(11,6,8,5)           -95.0946         estimate D2E/DX2                !
 ! D158  D(11,6,8,10)           -1.1451         estimate D2E/DX2                !
 ! D159  D(26,6,8,5)          -179.3331         estimate D2E/DX2                !
 ! D160  D(26,6,8,10)          -85.3836         estimate D2E/DX2                !
 ! D161  D(2,6,11,10)          -84.735          estimate D2E/DX2                !
 ! D162  D(2,6,11,34)         -177.9238         estimate D2E/DX2                !
 ! D163  D(8,6,11,10)            1.1678         estimate D2E/DX2                !
 ! D164  D(8,6,11,34)          -92.021          estimate D2E/DX2                !
 ! D165  D(12,6,11,10)         179.2829         estimate D2E/DX2                !
 ! D166  D(12,6,11,34)          86.0941         estimate D2E/DX2                !
 ! D167  D(26,6,11,10)          95.1126         estimate D2E/DX2                !
 ! D168  D(26,6,11,34)           1.9238         estimate D2E/DX2                !
 ! D169  D(2,6,12,9)            84.7461         estimate D2E/DX2                !
 ! D170  D(2,6,12,35)          177.9325         estimate D2E/DX2                !
 ! D171  D(7,6,12,9)            -1.1519         estimate D2E/DX2                !
 ! D172  D(7,6,12,35)           92.0345         estimate D2E/DX2                !
 ! D173  D(11,6,12,9)         -179.2679         estimate D2E/DX2                !
 ! D174  D(11,6,12,35)         -86.0815         estimate D2E/DX2                !
 ! D175  D(26,6,12,9)          -95.114          estimate D2E/DX2                !
 ! D176  D(26,6,12,35)          -1.9276         estimate D2E/DX2                !
 ! D177  D(7,6,26,34)          178.1698         estimate D2E/DX2                !
 ! D178  D(7,6,26,35)          -84.6766         estimate D2E/DX2                !
 ! D179  D(8,6,26,34)           84.6472         estimate D2E/DX2                !
 ! D180  D(8,6,26,35)         -178.1992         estimate D2E/DX2                !
 ! D181  D(11,6,26,34)          -1.9284         estimate D2E/DX2                !
 ! D182  D(11,6,26,35)          95.2252         estimate D2E/DX2                !
 ! D183  D(12,6,26,34)         -95.2213         estimate D2E/DX2                !
 ! D184  D(12,6,26,35)           1.9323         estimate D2E/DX2                !
 ! D185  D(1,7,9,4)             -2.1979         estimate D2E/DX2                !
 ! D186  D(1,7,9,12)           -97.0568         estimate D2E/DX2                !
 ! D187  D(1,7,9,21)            82.8293         estimate D2E/DX2                !
 ! D188  D(1,7,9,29)          -178.8838         estimate D2E/DX2                !
 ! D189  D(6,7,9,4)             93.7436         estimate D2E/DX2                !
 ! D190  D(6,7,9,12)            -1.1152         estimate D2E/DX2                !
 ! D191  D(6,7,9,21)           178.7709         estimate D2E/DX2                !
 ! D192  D(6,7,9,29)           -82.9423         estimate D2E/DX2                !
 ! D193  D(5,8,10,11)           97.0551         estimate D2E/DX2                !
 ! D194  D(5,8,10,13)            2.1719         estimate D2E/DX2                !
 ! D195  D(5,8,10,20)          -82.8577         estimate D2E/DX2                !
 ! D196  D(5,8,10,27)          178.8921         estimate D2E/DX2                !
 ! D197  D(6,8,10,11)            1.131          estimate D2E/DX2                !
 ! D198  D(6,8,10,13)          -93.7523         estimate D2E/DX2                !
 ! D199  D(6,8,10,20)         -178.7818         estimate D2E/DX2                !
 ! D200  D(6,8,10,27)           82.9679         estimate D2E/DX2                !
 ! D201  D(4,9,12,6)           -82.3427         estimate D2E/DX2                !
 ! D202  D(4,9,12,35)          179.2484         estimate D2E/DX2                !
 ! D203  D(7,9,12,6)             1.1109         estimate D2E/DX2                !
 ! D204  D(7,9,12,35)          -97.2981         estimate D2E/DX2                !
 ! D205  D(15,9,12,6)         -176.6389         estimate D2E/DX2                !
 ! D206  D(15,9,12,35)          84.9521         estimate D2E/DX2                !
 ! D207  D(29,9,12,6)           89.0689         estimate D2E/DX2                !
 ! D208  D(29,9,12,35)          -9.34           estimate D2E/DX2                !
 ! D209  D(6,11,20,32)          86.5845         estimate D2E/DX2                !
 ! D210  D(6,11,20,33)        -176.0072         estimate D2E/DX2                !
 ! D211  D(34,11,20,32)       -175.1167         estimate D2E/DX2                !
 ! D212  D(34,11,20,33)        -77.7084         estimate D2E/DX2                !
 ! D213  D(6,12,21,30)         -86.5906         estimate D2E/DX2                !
 ! D214  D(6,12,21,36)         176.0099         estimate D2E/DX2                !
 ! D215  D(35,12,21,30)        175.1167         estimate D2E/DX2                !
 ! D216  D(35,12,21,36)         77.7172         estimate D2E/DX2                !
 ! D217  D(4,9,15,36)           93.0687         estimate D2E/DX2                !
 ! D218  D(12,9,15,36)        -172.2176         estimate D2E/DX2                !
 ! D219  D(21,9,15,36)           8.1002         estimate D2E/DX2                !
 ! D220  D(29,9,15,36)         -90.0236         estimate D2E/DX2                !
 ! D221  D(4,9,21,30)           -4.2558         estimate D2E/DX2                !
 ! D222  D(4,9,21,36)         -101.2325         estimate D2E/DX2                !
 ! D223  D(7,9,21,30)          -88.1088         estimate D2E/DX2                !
 ! D224  D(7,9,21,36)          174.9145         estimate D2E/DX2                !
 ! D225  D(15,9,21,30)          89.6626         estimate D2E/DX2                !
 ! D226  D(15,9,21,36)          -7.3141         estimate D2E/DX2                !
 ! D227  D(29,9,21,30)        -175.3084         estimate D2E/DX2                !
 ! D228  D(29,9,21,36)          87.7148         estimate D2E/DX2                !
 ! D229  D(7,9,29,35)           95.0972         estimate D2E/DX2                !
 ! D230  D(12,9,29,35)          10.8129         estimate D2E/DX2                !
 ! D231  D(15,9,29,35)         -86.2444         estimate D2E/DX2                !
 ! D232  D(21,9,29,35)        -174.4393         estimate D2E/DX2                !
 ! D233  D(8,10,11,6)           -1.1263         estimate D2E/DX2                !
 ! D234  D(8,10,11,34)          97.2904         estimate D2E/DX2                !
 ! D235  D(13,10,11,6)          82.3331         estimate D2E/DX2                !
 ! D236  D(13,10,11,34)       -179.2501         estimate D2E/DX2                !
 ! D237  D(14,10,11,6)         176.6469         estimate D2E/DX2                !
 ! D238  D(14,10,11,34)        -84.9363         estimate D2E/DX2                !
 ! D239  D(27,10,11,6)         -89.0726         estimate D2E/DX2                !
 ! D240  D(27,10,11,34)          9.3442         estimate D2E/DX2                !
 ! D241  D(8,10,13,5)           -2.2013         estimate D2E/DX2                !
 ! D242  D(8,10,13,32)         -95.4732         estimate D2E/DX2                !
 ! D243  D(11,10,13,5)         -85.6255         estimate D2E/DX2                !
 ! D244  D(11,10,13,32)       -178.8974         estimate D2E/DX2                !
 ! D245  D(14,10,13,5)         176.2854         estimate D2E/DX2                !
 ! D246  D(14,10,13,32)         83.0135         estimate D2E/DX2                !
 ! D247  D(20,10,13,5)          89.1611         estimate D2E/DX2                !
 ! D248  D(20,10,13,32)         -4.1108         estimate D2E/DX2                !
 ! D249  D(5,13,27,34)         -96.4883         estimate D2E/DX2                !
 ! D250  D(32,13,27,34)        170.6567         estimate D2E/DX2                !
 ! D251  D(11,10,14,33)        172.1967         estimate D2E/DX2                !
 ! D252  D(13,10,14,33)        -93.0603         estimate D2E/DX2                !
 ! D253  D(20,10,14,33)         -8.094          estimate D2E/DX2                !
 ! D254  D(27,10,14,33)         89.9919         estimate D2E/DX2                !
 ! D255  D(8,10,20,32)          88.123          estimate D2E/DX2                !
 ! D256  D(8,10,20,33)        -174.8964         estimate D2E/DX2                !
 ! D257  D(13,10,20,32)          4.2577         estimate D2E/DX2                !
 ! D258  D(13,10,20,33)        101.2382         estimate D2E/DX2                !
 ! D259  D(14,10,20,32)        -89.6711         estimate D2E/DX2                !
 ! D260  D(14,10,20,33)          7.3094         estimate D2E/DX2                !
 ! D261  D(27,10,20,32)        175.3053         estimate D2E/DX2                !
 ! D262  D(27,10,20,33)        -87.7142         estimate D2E/DX2                !
 ! D263  D(8,10,27,34)         -95.0973         estimate D2E/DX2                !
 ! D264  D(11,10,27,34)        -10.8171         estimate D2E/DX2                !
 ! D265  D(14,10,27,34)         86.2823         estimate D2E/DX2                !
 ! D266  D(20,10,27,34)        174.4769         estimate D2E/DX2                !
 ! D267  D(6,11,34,26)          -1.871          estimate D2E/DX2                !
 ! D268  D(6,11,34,27)          85.202          estimate D2E/DX2                !
 ! D269  D(6,11,34,28)         -80.9362         estimate D2E/DX2                !
 ! D270  D(6,11,34,41)        -179.2424         estimate D2E/DX2                !
 ! D271  D(10,11,34,26)        -97.2588         estimate D2E/DX2                !
 ! D272  D(10,11,34,27)        -10.1858         estimate D2E/DX2                !
 ! D273  D(10,11,34,28)       -176.324          estimate D2E/DX2                !
 ! D274  D(10,11,34,41)         85.3698         estimate D2E/DX2                !
 ! D275  D(6,12,35,26)           1.8747         estimate D2E/DX2                !
 ! D276  D(6,12,35,28)          80.9452         estimate D2E/DX2                !
 ! D277  D(6,12,35,29)         -85.1916         estimate D2E/DX2                !
 ! D278  D(6,12,35,42)         179.2572         estimate D2E/DX2                !
 ! D279  D(9,12,35,26)          97.2451         estimate D2E/DX2                !
 ! D280  D(9,12,35,28)         176.3155         estimate D2E/DX2                !
 ! D281  D(9,12,35,29)          10.1788         estimate D2E/DX2                !
 ! D282  D(9,12,35,42)         -85.3725         estimate D2E/DX2                !
 ! D283  D(5,13,32,18)          -5.8531         estimate D2E/DX2                !
 ! D284  D(5,13,32,20)         -91.7543         estimate D2E/DX2                !
 ! D285  D(5,13,32,23)        -174.3689         estimate D2E/DX2                !
 ! D286  D(5,13,32,39)          88.0502         estimate D2E/DX2                !
 ! D287  D(10,13,32,18)         89.8569         estimate D2E/DX2                !
 ! D288  D(10,13,32,20)          3.9557         estimate D2E/DX2                !
 ! D289  D(10,13,32,23)        -78.6589         estimate D2E/DX2                !
 ! D290  D(10,13,32,39)       -176.2398         estimate D2E/DX2                !
 ! D291  D(10,14,33,20)          7.4786         estimate D2E/DX2                !
 ! D292  D(10,14,33,23)         82.8477         estimate D2E/DX2                !
 ! D293  D(10,14,33,24)        -87.9974         estimate D2E/DX2                !
 ! D294  D(10,14,33,40)        177.9963         estimate D2E/DX2                !
 ! D295  D(9,15,36,21)          -7.4831         estimate D2E/DX2                !
 ! D296  D(9,15,36,22)         -82.8553         estimate D2E/DX2                !
 ! D297  D(9,15,36,25)          87.985          estimate D2E/DX2                !
 ! D298  D(9,15,36,43)        -178.0079         estimate D2E/DX2                !
 ! D299  D(5,16,31,3)           -9.8375         estimate D2E/DX2                !
 ! D300  D(5,16,31,17)          66.6756         estimate D2E/DX2                !
 ! D301  D(5,16,31,38)        -119.2596         estimate D2E/DX2                !
 ! D302  D(1,17,31,3)            9.8484         estimate D2E/DX2                !
 ! D303  D(1,17,31,16)         -66.6762         estimate D2E/DX2                !
 ! D304  D(1,17,31,38)         119.259          estimate D2E/DX2                !
 ! D305  D(5,18,32,13)           6.0202         estimate D2E/DX2                !
 ! D306  D(5,18,32,20)          86.4141         estimate D2E/DX2                !
 ! D307  D(5,18,32,23)          44.7857         estimate D2E/DX2                !
 ! D308  D(5,18,32,39)        -133.9065         estimate D2E/DX2                !
 ! D309  D(1,19,30,4)           -6.052          estimate D2E/DX2                !
 ! D310  D(1,19,30,21)         -86.4526         estimate D2E/DX2                !
 ! D311  D(1,19,30,22)         -44.8824         estimate D2E/DX2                !
 ! D312  D(1,19,30,37)         133.86           estimate D2E/DX2                !
 ! D313  D(10,20,32,13)         -4.0704         estimate D2E/DX2                !
 ! D314  D(10,20,32,18)        -86.0296         estimate D2E/DX2                !
 ! D315  D(10,20,32,23)         81.7061         estimate D2E/DX2                !
 ! D316  D(10,20,32,39)        176.1227         estimate D2E/DX2                !
 ! D317  D(33,20,32,13)        -96.7459         estimate D2E/DX2                !
 ! D318  D(33,20,32,18)       -178.7051         estimate D2E/DX2                !
 ! D319  D(33,20,32,23)        -10.9693         estimate D2E/DX2                !
 ! D320  D(33,20,32,39)         83.4472         estimate D2E/DX2                !
 ! D321  D(10,20,33,14)         -7.0757         estimate D2E/DX2                !
 ! D322  D(10,20,33,23)        -89.4189         estimate D2E/DX2                !
 ! D323  D(10,20,33,24)        111.8864         estimate D2E/DX2                !
 ! D324  D(10,20,33,40)       -165.2177         estimate D2E/DX2                !
 ! D325  D(32,20,33,14)         92.2241         estimate D2E/DX2                !
 ! D326  D(32,20,33,23)          9.8809         estimate D2E/DX2                !
 ! D327  D(32,20,33,24)       -148.8137         estimate D2E/DX2                !
 ! D328  D(32,20,33,40)        -65.9178         estimate D2E/DX2                !
 ! D329  D(9,21,30,4)            4.0695         estimate D2E/DX2                !
 ! D330  D(9,21,30,19)          86.0286         estimate D2E/DX2                !
 ! D331  D(9,21,30,22)         -81.7272         estimate D2E/DX2                !
 ! D332  D(9,21,30,37)        -176.1326         estimate D2E/DX2                !
 ! D333  D(36,21,30,4)          96.7487         estimate D2E/DX2                !
 ! D334  D(36,21,30,19)        178.7077         estimate D2E/DX2                !
 ! D335  D(36,21,30,22)         10.952          estimate D2E/DX2                !
 ! D336  D(36,21,30,37)        -83.4534         estimate D2E/DX2                !
 ! D337  D(9,21,36,15)           7.0817         estimate D2E/DX2                !
 ! D338  D(9,21,36,22)          89.4264         estimate D2E/DX2                !
 ! D339  D(9,21,36,25)        -111.8916         estimate D2E/DX2                !
 ! D340  D(9,21,36,43)         165.2253         estimate D2E/DX2                !
 ! D341  D(30,21,36,15)        -92.2098         estimate D2E/DX2                !
 ! D342  D(30,21,36,22)         -9.865          estimate D2E/DX2                !
 ! D343  D(30,21,36,25)        148.817          estimate D2E/DX2                !
 ! D344  D(30,21,36,43)         65.9339         estimate D2E/DX2                !
 ! D345  D(36,22,30,4)         -91.8909         estimate D2E/DX2                !
 ! D346  D(36,22,30,19)        -53.3967         estimate D2E/DX2                !
 ! D347  D(36,22,30,21)        -11.54           estimate D2E/DX2                !
 ! D348  D(36,22,30,37)        127.8602         estimate D2E/DX2                !
 ! D349  D(30,22,36,15)         93.888          estimate D2E/DX2                !
 ! D350  D(30,22,36,21)         11.3947         estimate D2E/DX2                !
 ! D351  D(30,22,36,25)        -64.2255         estimate D2E/DX2                !
 ! D352  D(30,22,36,43)       -146.606          estimate D2E/DX2                !
 ! D353  D(33,23,32,13)         91.9062         estimate D2E/DX2                !
 ! D354  D(33,23,32,18)         53.4743         estimate D2E/DX2                !
 ! D355  D(33,23,32,20)         11.5574         estimate D2E/DX2                !
 ! D356  D(33,23,32,39)       -127.8329         estimate D2E/DX2                !
 ! D357  D(32,23,33,14)        -93.9093         estimate D2E/DX2                !
 ! D358  D(32,23,33,20)        -11.4118         estimate D2E/DX2                !
 ! D359  D(32,23,33,24)         64.2013         estimate D2E/DX2                !
 ! D360  D(32,23,33,40)        146.5755         estimate D2E/DX2                !
 ! D361  D(6,26,34,11)           1.8448         estimate D2E/DX2                !
 ! D362  D(6,26,34,27)         -82.4475         estimate D2E/DX2                !
 ! D363  D(6,26,34,28)          86.1584         estimate D2E/DX2                !
 ! D364  D(6,26,34,41)         179.1186         estimate D2E/DX2                !
 ! D365  D(35,26,34,11)        -96.6791         estimate D2E/DX2                !
 ! D366  D(35,26,34,27)        179.0285         estimate D2E/DX2                !
 ! D367  D(35,26,34,28)        -12.3655         estimate D2E/DX2                !
 ! D368  D(35,26,34,41)         80.5947         estimate D2E/DX2                !
 ! D369  D(6,26,35,12)          -1.8481         estimate D2E/DX2                !
 ! D370  D(6,26,35,28)         -86.1699         estimate D2E/DX2                !
 ! D371  D(6,26,35,29)          82.4303         estimate D2E/DX2                !
 ! D372  D(6,26,35,42)        -179.1335         estimate D2E/DX2                !
 ! D373  D(34,26,35,12)         96.6887         estimate D2E/DX2                !
 ! D374  D(34,26,35,28)         12.3668         estimate D2E/DX2                !
 ! D375  D(34,26,35,29)       -179.033          estimate D2E/DX2                !
 ! D376  D(34,26,35,42)        -80.5968         estimate D2E/DX2                !
 ! D377  D(10,27,34,11)         10.3474         estimate D2E/DX2                !
 ! D378  D(10,27,34,26)         90.4186         estimate D2E/DX2                !
 ! D379  D(10,27,34,28)         55.3177         estimate D2E/DX2                !
 ! D380  D(10,27,34,41)       -128.5924         estimate D2E/DX2                !
 ! D381  D(35,28,34,11)         94.6785         estimate D2E/DX2                !
 ! D382  D(35,28,34,26)         13.637          estimate D2E/DX2                !
 ! D383  D(35,28,34,27)         49.5487         estimate D2E/DX2                !
 ! D384  D(35,28,34,41)       -126.5083         estimate D2E/DX2                !
 ! D385  D(34,28,35,12)        -94.6798         estimate D2E/DX2                !
 ! D386  D(34,28,35,26)        -13.637          estimate D2E/DX2                !
 ! D387  D(34,28,35,29)        -49.5593         estimate D2E/DX2                !
 ! D388  D(34,28,35,42)        126.5058         estimate D2E/DX2                !
 ! D389  D(9,29,35,12)         -10.3447         estimate D2E/DX2                !
 ! D390  D(9,29,35,26)         -90.4213         estimate D2E/DX2                !
 ! D391  D(9,29,35,28)         -55.3087         estimate D2E/DX2                !
 ! D392  D(9,29,35,42)         128.5935         estimate D2E/DX2                !
 --------------------------------------------------------------------------------
 Trust Radius=3.00D-01 FncErr=1.00D-07 GrdErr=1.00D-06 EigMax=2.50D+02 EigMin=1.00D-04
 Number of steps in this run=    258 maximum allowed number of steps=    258.
 GradGradGradGradGradGradGradGradGradGradGradGradGradGradGradGradGradGrad

                          Input orientation:                          
 ---------------------------------------------------------------------
 Center     Atomic      Atomic             Coordinates (Angstroms)
 Number     Number       Type             X           Y           Z
 ---------------------------------------------------------------------
      1         12           0       -1.888484    2.242369   -0.226693
      2         17           0       -0.000460    1.294651    1.225268
      3         17           0        0.000854    3.428790   -1.355146
      4         17           0       -3.646951    1.273613    1.218041
      5         12           0        1.888451    2.241099   -0.225729
      6         12           0       -0.000394   -0.921279    0.029303
      7         17           0       -1.804523    0.028591   -1.386450
      8         17           0        1.804902    0.027834   -1.385614
      9         12           0       -3.709661   -0.973049    0.044950
     10         12           0        3.709418   -0.973497    0.046439
     11         17           0        1.805655   -1.948035    1.411905
     12         17           0       -1.806143   -1.947693    1.411557
     13         17           0        3.647027    1.273415    1.219004
     14         17           0        5.510961   -1.790464    1.375724
     15         17           0       -5.510862   -1.790131    1.375069
     16         17           0        1.927285    4.457265    1.133780
     17         17           0       -1.926761    4.458040    1.131935
     18         17           0        3.751223    3.010285   -1.608278
     19         17           0       -3.751885    3.010573   -1.608702
     20         17           0        5.413986    0.076426   -1.420711
     21         17           0       -5.414713    0.076890   -1.421094
     22         17           0       -7.027770    1.157377    1.178837
     23         17           0        7.027651    1.157210    1.178522
     24         17           0        8.164283   -2.605194   -1.725272
     25         17           0       -8.165272   -2.604475   -1.725145
     26         17           0        0.000072   -3.141339   -1.178915
     27         17           0        3.382017   -3.127258   -1.256646
     28         17           0       -0.000309   -4.777676    1.575842
     29         17           0       -3.381650   -3.126761   -1.257263
     30         13           0       -5.620991    2.387950   -0.220836
     31         13           0        0.000941    5.472269    0.497915
     32         13           0        5.620853    2.387723   -0.221321
     33         13           0        7.437199   -1.156442   -0.079500
     34         13           0        1.953990   -4.271131    0.169244
     35         13           0       -1.953983   -4.271048    0.168971
     36         13           0       -7.437523   -1.156188   -0.079257
     37         17           0       -6.810821    4.281816   -0.344038
     38         17           0        0.001912    7.468277   -0.518722
     39         17           0        6.810995    4.281309   -0.345791
     40         17           0        9.539489   -1.564681    0.577249
     41         17           0        3.093378   -6.195306    0.299423
     42         17           0       -3.093404   -6.195221    0.298887
     43         17           0       -9.539411   -1.564958    0.578448
 ---------------------------------------------------------------------
                    Distance matrix (angstroms):
                    1          2          3          4          5
     1  Mg   0.000000
     2  Cl   2.563395   0.000000
     3  Cl   2.500120   3.348595   0.000000
     4  Cl   2.473449   3.646559   4.957072   0.000000
     5  Mg   3.776935   2.563034   2.499843   5.801825   0.000000
     6  Mg   3.693113   2.518070   4.565063   4.419053   3.692345
     7  Cl   2.500580   3.417400   3.849899   3.424616   4.458758
     8  Cl   4.459637   3.417728   3.849938   6.168767   2.500171
     9  Mg   3.705319   4.504862   5.924895   2.535264   6.460872
    10  Mg   6.461649   4.505256   5.924358   7.780637   3.704541
    11  Cl   5.821611   3.716436   6.310636   6.336206   4.498616
    12  Cl   4.499696   3.715910   6.310820   3.715217   5.820370
    13  Cl   5.802654   3.647554   4.956457   7.293978   2.473106
    14  Cl   8.578069   6.317937   8.065950   9.658198   5.651613
    15  Cl   5.652285   6.316870   8.066612   3.589617   8.576899
    16  Cl   4.617006   3.704956   3.311140   6.419879   2.600224
    17  Cl   2.599333   3.704912   3.310684   3.620365   4.616700
    18  Cl   5.857027   5.004749   3.782128   8.107841   2.443974
    19  Cl   2.443839   5.004894   3.784474   3.319415   5.858165
    20  Cl   7.709932   6.148293   6.367467   9.512983   4.306180
    21  Cl   4.306992   6.148196   6.369297   3.394431   7.710311
    22  Cl   5.437369   7.028804   7.809094   3.383044   9.090999
    23  Cl   9.091186   7.029610   7.807396  10.675310   5.436737
    24  Cl  11.260672   9.517221  10.158126  12.775503   8.069774
    25  Cl   8.070646   9.516947  10.159862   6.642073  11.260781
    26  Cl   5.784262   5.045602   6.572492   6.207896   5.783181
    27  Cl   7.594200   6.095435   7.377244   8.654371   5.666814
    28  Cl   7.489684   6.082438   8.714171   7.074187   7.488409
    29  Cl   5.667378   6.094612   7.377409   5.055770   7.592888
    30  Al   3.735350   5.905666   5.828820   2.684948   7.510879
    31  Al   3.811461   4.240464   2.758558   5.608423   3.811406
    32  Al   7.510746   5.906487   5.826986   9.444850   3.735283
    33  Al   9.926830   7.939084   8.828978  11.421347   6.507939
    34  Al   7.572784   5.992745   8.088714   7.950767   6.524526
    35  Al   6.525752   5.992414   8.088994   5.891515   7.571535
    36  Al   6.508745   7.938407   8.830593   4.685654   9.926571
    37  Cl   5.329401   7.600453   6.938941   4.636749   8.936210
    38  Cl   5.564979   6.415229   4.125174   7.396243   5.564914
    39  Cl   8.936017   7.601597   6.937118  10.993655   5.329945
    40  Cl  12.072221   9.980297  10.938668  13.503656   8.582955
    41  Cl   9.812752   8.156499  10.243267  10.102507   8.538182
    42  Cl   8.539379   8.156143  10.243625   7.545511   9.811503
    43  Cl   8.583744   9.979344  10.940427   6.571730  12.071818
                    6          7          8          9         10
     6  Mg   0.000000
     7  Cl   2.482235   0.000000
     8  Cl   2.482317   3.609425   0.000000
     9  Mg   3.709661   2.584906   5.784348   0.000000
    10  Mg   3.710219   5.784539   2.584690   7.419079   0.000000
    11  Cl   2.495522   4.977070   3.424934   5.765230   2.537427
    12  Cl   2.494971   3.425572   4.976597   2.537898   5.764895
    13  Cl   4.419926   6.169066   3.424753   7.781122   2.535235
    14  Cl   5.739631   8.028379   4.966495   9.351951   2.383273
    15  Cl   5.738575   4.966959   8.027875   2.383519   9.351241
    16  Cl   5.819326   6.315940   5.097272   7.902469   5.818203
    17  Cl   5.819258   5.096786   6.315860   5.818677   7.902304
    18  Cl   5.675694   6.309201   3.568299   8.617709   4.313972
    19  Cl   5.675932   3.568449   6.310656   4.313420   8.618779
    20  Cl   5.693283   7.218749   3.609582   9.300027   2.482019
    21  Cl   5.693403   3.610679   7.219869   2.481705   9.300900
    22  Cl   7.417968   5.927661   9.266519   4.102958  11.005006
    23  Cl   7.418506   9.266076   5.926836  11.005129   4.102706
    24  Cl   8.519158  10.316429   6.891294  12.115615   5.064308
    25  Cl   8.519182   6.892523  10.317398   5.064312  12.116388
    26  Cl   2.527540   3.653504   3.652916   4.467823   4.467693
    27  Cl   4.238008   6.072597   3.529664   7.525069   2.538485
    28  Cl   4.154947   5.927104   5.926376   5.529748   5.529279
    29  Cl   4.237015   3.529910   6.071924   2.538075   7.524588
    30  Al   6.527226   4.635802   7.878499   3.875582   9.921053
    31  Al   6.410698   6.036900   6.036872   7.450897   7.450136
    32  Al   6.527689   7.877769   4.635314   9.920896   3.875962
    33  Al   7.442105   9.408605   5.901797  11.149063   3.734392
    34  Al   3.880813   5.918971   4.573938   6.555131   3.737780
    35  Al   3.880331   4.574775   5.918305   3.738259   6.554614
    36  Al   7.441630   5.902808   9.409086   3.734424  11.149147
    37  Cl   8.578665   6.651282   9.664984   6.114091  11.766316
    38  Cl   8.407436   7.704874   7.704704   9.238479   9.237346
    39  Cl   8.579198   9.664147   6.650884  11.766272   6.114459
    40  Cl   9.577242  11.622445   8.137123  13.273030   5.883960
    41  Cl   6.120437   8.097437   6.574724   8.580097   5.264104
    42  Cl   6.119955   6.575516   8.096750   5.264536   8.579541
    43  Cl   9.576467   8.138102  11.622734   5.883957  13.272691
                   11         12         13         14         15
    11  Cl   0.000000
    12  Cl   3.611798   0.000000
    13  Cl   3.715589   6.336377   0.000000
    14  Cl   3.708831   7.318881   3.589731   0.000000
    15  Cl   7.318313   3.708248   9.657981  11.021823   0.000000
    16  Cl   6.412489   7.418836   3.619624   7.206621   9.716697
    17  Cl   7.419374   6.412968   6.420010   9.717147   7.207256
    18  Cl   6.123045   8.036496   3.319804   5.920147  10.850372
    19  Cl   8.037295   6.123094   8.109102  10.851593   5.919768
    20  Cl   5.014201   8.015551   3.394558   3.363738  11.430342
    21  Cl   8.016228   5.014442   9.514038  11.431516   3.363561
    22  Cl   9.366285   6.079556  10.675503  12.882092   3.320741
    23  Cl   6.079988   9.366464   3.382863   3.320846  12.881761
    24  Cl   7.120806  10.472888   6.642136   4.161740  14.045854
    25  Cl  10.473365   7.121010  12.776402  14.046969   4.161775
    26  Cl   3.375863   3.376055   6.208087   6.222615   6.222459
    27  Cl   3.316119   5.952116   5.056184   3.639889   9.370012
    28  Cl   3.360841   3.361076   7.074327   6.271968   6.271517
    29  Cl   5.951637   3.315875   8.654233   9.369997   3.639958
    30  Al   8.753381   6.001298   9.445183  11.997021   4.473858
    31  Al   7.691117   7.691302   5.607521   9.158502   9.159248
    32  Al   6.001830   8.753422   2.685555   4.474358  11.996583
    33  Al   5.879217   9.396207   4.685693   2.496008  13.044908
    34  Al   2.638747   4.591329   5.891550   4.501260   7.958228
    35  Al   4.590877   2.638912   7.950783   7.958325   4.501223
    36  Al   9.396112   5.878898  11.421721  13.045402   2.495791
    37  Cl  10.776735   8.181423  10.993641  13.844005   6.443117
    38  Cl   9.779966   9.780365   7.394787  10.939051  10.940532
    39  Cl   8.182155  10.777004   4.637532   6.443612  13.843840
    40  Cl   7.788183  11.382712   6.571738   4.113098  15.073168
    41  Cl   4.575495   6.579085   7.545459   5.138654   9.726023
    42  Cl   6.578615   4.575650  10.102502   9.726076   5.138783
    43  Cl  11.382087   7.787425  13.503659  15.073161   4.112725
                   16         17         18         19         20
    16  Cl   0.000000
    17  Cl   3.854047   0.000000
    18  Cl   3.597135   6.468714   0.000000
    19  Cl   6.470479   3.596850   7.503108   0.000000
    20  Cl   6.154207   8.921945   3.377498   9.625890   0.000000
    21  Cl   8.923004   6.154530   9.625707   3.377379  10.828699
    22  Cl   9.543810   6.075925  11.286628   4.683602  12.756308
    23  Cl   6.075039   9.543539   4.683495  11.287248   3.244691
    24  Cl   9.846454  12.644448   7.142996  13.173666   3.853307
    25  Cl  12.645210   9.846880  13.173536   7.142850  13.844716
    26  Cl   8.173218   8.173327   7.217892   7.218582   6.302614
    27  Cl   8.084267   9.561652   6.158684   9.417509   3.797289
    28  Cl   9.444320   9.444931   9.212217   9.212625   7.864873
    29  Cl   9.561346   8.084193   9.416179   6.158527   9.362176
    30  Al   7.943143   4.445514   9.494772   2.409852  11.338146
    31  Al   2.268338   2.268629   4.956009   4.957972   7.880184
    32  Al   4.445419   7.942543   2.409720   9.495314   2.612168
    33  Al   7.958951  10.985160   5.769332  12.037362   2.722536
    34  Al   8.781568   9.601324   7.707701   9.420261   5.779341
    35  Al   9.600966   8.782085   9.419437   7.708085   8.701413
    36  Al  10.985533   7.959588  12.036837   5.769318  12.979989
    37  Cl   8.863928   5.105251  10.713163   3.545775  12.972680
    38  Cl   3.937514   3.937763   5.926057   5.928758   9.205628
    39  Cl   5.105949   8.863593   3.545643  10.713736   4.559400
    40  Cl   9.722099  12.963631   7.694860  14.225749   4.868763
    41  Cl  10.748637  11.806297   9.424170  11.629564   6.904977
    42  Cl  11.805923  10.749279  11.628738   9.424391  10.708233
    43  Cl  12.963821   9.722925  14.225173   7.695100  15.175469
                   21         22         23         24         25
    21  Cl   0.000000
    22  Cl   3.244849   0.000000
    23  Cl  12.756862  14.055421   0.000000
    24  Cl  13.844682  15.918205   4.886680   0.000000
    25  Cl   3.853276   4.886568  15.918746  16.329555   0.000000
    26  Cl   6.303614   8.569044   8.568658   8.200018   8.201185
    27  Cl   9.363550  11.517523   6.130037   4.833449  11.568607
    28  Cl   7.865380   9.206936   9.207223   9.070699   9.071159
    29  Cl   3.797837   6.130466  11.516901  11.567179   4.834742
    30  Al   2.612311   2.335042  12.785189  14.738677   5.801777
    31  Al   7.881752   8.275550   8.273912  11.697355  11.698838
    32  Al  11.338568  12.785220   2.335124   5.801735  14.739090
    33  Al  12.980471  14.702806   2.665208   2.310000  15.755699
    34  Al   8.702428  10.543244   7.498504   6.703154  10.429090
    35  Al   5.780097   7.498729  10.543004  10.427968   6.704122
    36  Al   2.722640   2.665198  14.702893  15.755168   2.310000
    37  Cl   4.559667   3.482575  14.268309  16.540630   7.152831
    38  Cl   9.207970   9.598208   9.595374  13.021324  13.023774
    39  Cl  12.973101  14.268667   3.482882   7.152502  16.541016
    40  Cl  15.176175  16.800166   3.752273   2.876710  17.884092
    41  Cl  10.709259  12.540851   8.385154   6.534705  11.989584
    42  Cl   6.905519   8.385359  12.540644  11.988370   6.535596
    43  Cl   4.868980   3.752321  16.799935  17.883232   2.876699
                   26         27         28         29         30
    26  Cl   0.000000
    27  Cl   3.382867   0.000000
    28  Cl   3.204104   4.710308   0.000000
    29  Cl   3.382661   6.763667   4.710146   0.000000
    30  Al   7.942752  10.608703   9.282581   6.041595   0.000000
    31  Al   8.775306   9.405425  10.306469   9.405631   6.452577
    32  Al   7.942335   6.041465   9.282791  10.607911  11.241844
    33  Al   7.775563   4.659859   8.436232  11.059692  13.531409
    34  Al   2.629022   2.319670   2.460567   5.640351  10.093357
    35  Al   2.628948   5.640349   2.460244   2.319864   7.611909
    36  Al   7.776110  11.060461   8.436035   4.660575   3.985066
    37  Cl  10.108833  12.634127  11.495364   8.214633   2.240000
    38  Cl  10.630137  11.146076  12.423790  11.146693   7.583897
    39  Cl  10.108337   8.214281  11.495727  12.633301  12.575957
    40  Cl   9.827025   6.612055  10.115743  13.143871  15.687587
    41  Cl   4.591377   3.452185   3.634531   7.332477  12.242678
    42  Cl   4.591262   7.332336   3.634183   3.452555   8.962680
    43  Cl   9.827260  13.144263  10.114881   6.612646   5.623019
                   31         32         33         34         35
    31  Al   0.000000
    32  Al   6.450979   0.000000
    33  Al   9.978534   3.985013   0.000000
    34  Al   9.942649   7.611752   6.311002   0.000000
    35  Al   9.942945  10.093052   9.897313   3.907973   0.000000
    36  Al   9.979996  13.531470  14.874722   9.897734   6.311353
    37  Cl   6.966072  12.575737  15.252891  12.257172   9.849037
    38  Cl   2.240000   7.581093  11.395709  11.920470  11.920998
    39  Cl   6.964701   2.240000   5.480163   9.848858  12.256942
    40  Cl  11.853643   5.622715   2.240000   8.064188  11.814864
    41  Cl  12.072070   8.962572   6.663521   2.240000   5.403299
    42  Cl  12.072486  12.242378  11.680157   5.403250   2.240000
    43  Cl  11.855267  15.687476  16.994265  11.814782   8.064075
                   36         37         38         39         40
    36  Al   0.000000
    37  Cl   5.480397   0.000000
    38  Cl  11.398233   7.523123   0.000000
    39  Cl  15.253120  13.621816   7.519992   0.000000
    40  Cl  16.994611  17.388586  13.181838   6.517077   0.000000
    41  Cl  11.680581  14.431814  14.032819  11.135369   7.941802
    42  Cl   6.663799  11.135567  14.033554  14.431577  13.457687
    43  Cl   2.240000   6.517740  13.184838  17.388755  19.078899
                   41         42         43
    41  Cl   0.000000
    42  Cl   6.186781   0.000000
    43  Cl  13.457538   7.941568   0.000000
 Stoichiometry    Al7Cl31Mg5
 Framework group  C1[X(Al7Cl31Mg5)]
 Deg. of freedom   123
 Full point group                 C1      NOp   1
 Largest Abelian subgroup         C1      NOp   1
 Largest concise Abelian subgroup C1      NOp   1
                         Standard orientation:                         
 ---------------------------------------------------------------------
 Center     Atomic      Atomic             Coordinates (Angstroms)
 Number     Number       Type             X           Y           Z
 ---------------------------------------------------------------------
      1         12           0        1.888497    2.269443    0.144412
      2         17           0        0.000481    1.291758   -1.287554
      3         17           0       -0.000849    3.479052    1.247960
      4         17           0        3.646972    1.270880   -1.279873
      5         12           0       -1.888438    2.268148    0.143455
      6         12           0        0.000412   -0.898844   -0.045805
      7         17           0        1.804532    0.080240    1.349915
      8         17           0       -1.804893    0.079460    1.349077
      9         12           0        3.709679   -0.950923   -0.060354
     10         12           0       -3.709400   -0.951412   -0.061871
     11         17           0       -1.805629   -1.954108   -1.406784
     12         17           0        1.806169   -1.953754   -1.406425
     13         17           0       -3.647006    1.270652   -1.280869
     14         17           0       -5.510935   -1.795825   -1.373903
     15         17           0        5.510888   -1.795463   -1.373200
[...]
 .00000848,-0.00002468,-0.00004764,0.00007171,-0.00011981,-0.00017072,0
 .00020183,0.00004173,-0.00001202,0.00003947,0.00000068,-0.00001723,0.0
 0002205,0.00006084,0.00003868,-0.00007259,-0.00009465,-0.00014935,-0.0
 0051379,-0.00181705,-0.00648446,-0.00914138,-0.00019911,-0.00259392,-0
 .00108505,-0.00000128,0.00001026,-0.00034188,-0.00000286,0.00004971,-0
 .00010012,0.00001035,0.00001816,-0.00002690,-0.00001912,0.00000353,0.0
 0001348,0.00000681,0.00002774,0.00007578,0.01179686,-0.00022323,0.0098
 7303,0.00022390,-0.00012372,0.00002291,-0.00020324,0.00012274,0.000002
 99,-0.00008606,0.00010263,0.00000957,-0.00009728,0.00003061,-0.0000092
 7,0.00044444,-0.00039594,0.00009457,0.00052030,-0.00018660,0.00013925,
 -0.00014280,0.00003769,-0.00001771,-0.00024897,0.00015225,-0.00009208,
 0.00022234,-0.00004412,-0.00000527,0.00141322,-0.00136541,0.00190621,-
 0.00072122,-0.00014251,-0.00008632,-0.00018630,-0.00001137,-0.00000430
 ,-0.00015395,0.00049797,-0.00009761,-0.00853185,0.00128940,-0.00676674
 ,-0.00012273,0.00000980,0.00002316,-0.00012251,0.00014765,-0.00000262,
 -0.00006395,0.00004601,0.00002655,-0.00014582,0.00021015,-0.00015058,-
 0.00007634,0.00001693,-0.00000476,0.00008648,0.00030510,-0.00034458,-0
 .00005409,0.00002630,-0.00000214,-0.00005157,-0.00001153,0.00001832,-0
 .00065068,0.00307355,-0.00251464,0.00219949,0.00032738,0.00052907,-0.0
 0003918,-0.00000817,-0.00001421,-0.00030504,-0.00005845,-0.00005016,-0
 .00050972,-0.00041157,-0.00036530,-0.00024903,-0.00008874,0.00001114,-
 0.00012869,0.00002443,-0.00004103,0.00017617,-0.00005155,-0.00001095,0
 .00017319,-0.00022863,0.00001161,0.00061779,-0.00100884,0.00075400,-0.
 04162883,0.01883865,-0.05971861,0.00081910,0.00068647,0.00008686,0.000
 45645,0.00011249,-0.00001090,0.00016291,0.00000391,-0.00002387,-0.0000
 5087,0.00003701,0.00000568,-0.00002494,0.00010142,-0.00002276,0.000085
 46,0.00070719,-0.00020219,0.04727551,-0.00017649,-0.00007405,-0.000015
 97,0.00016903,0.00007938,-0.00000392,0.00012084,0.00000372,0.00000523,
 0.00004951,0.00002523,0.00000253,-0.00060560,0.00003355,-0.00010376,-0
 .00012269,-0.00029344,0.00007365,0.00007621,0.00006945,0.00000535,0.00
 021286,0.00021491,0.00003626,-0.00004541,-0.00009650,0.00001959,-0.000
 23565,-0.00104152,0.00032096,-0.00010387,0.00019860,-0.00001721,0.0000
 0480,0.00008444,-0.00000371,0.00101387,0.00028010,0.00002140,-0.000969
 81,0.00185499,-0.00075912,0.00001203,0.00001916,-0.00000885,0.00016813
 ,-0.00009438,0.00002564,0.00009592,0.00002546,-0.00002290,0.00042771,-
 0.00006630,0.00015270,0.00006811,0.00002700,-0.00000612,0.00054455,0.0
 0077616,0.00062692,0.00001878,0.00002565,0.00000565,0.00002906,0.00003
 745,-0.00001355,0.00637563,-0.00662850,0.00670878,0.00020176,0.0024074
 7,-0.00097363,0.00000915,0.00001257,0.00000271,0.00000359,0.00009861,-
 0.00003124,0.00004346,0.00018962,-0.00009242,-0.00010369,0.00007605,-0
 .00003262,-0.00000811,0.00004416,-0.00000906,-0.00010791,-0.00005405,0
 .00002194,-0.00028066,0.00008095,-0.00004564,-0.00366866,0.00116950,-0
 .00271507,0.01889009,-0.01968834,0.03459335,0.00023584,-0.00043938,0.0
 0017949,0.00005308,-0.00016908,0.00006954,-0.00002857,-0.00005336,0.00
 001412,0.00002535,0.00000169,-0.00000554,0.00004422,-0.00004476,0.0000
 1561,0.00015127,-0.00124046,0.00057537,-0.02240925,0.02189453,0.000225
 83,-0.00006144,-0.00004047,-0.00020879,0.00005757,0.00007235,-0.000126
 51,0.00009408,0.00005369,-0.00008017,0.00001061,0.00001568,0.00060079,
 -0.00030158,-0.00010087,0.00044299,-0.00000214,-0.00008035,-0.00014884
 ,0.00000688,0.00001705,-0.00036707,0.00003560,0.00002853,0.00018615,0.
 00000274,-0.00005657,0.00157514,-0.00035921,0.00052306,-0.00047160,-0.
 00009834,0.00008473,-0.00012925,-0.00002011,0.00004167,-0.00077752,0.0
 0025186,0.00022908,-0.00495390,0.00042735,-0.00125414,-0.00009095,-0.0
 0000142,0.00003213,-0.00013693,0.00014354,0.00004131,-0.00009025,0.000
 02234,0.00005490,-0.00041713,0.00027041,-0.00004688,-0.00008873,-0.000
 00119,0.00001515,-0.00030779,0.00034163,0.00003431,-0.00004850,0.00001
 591,0.00001075,-0.00004989,-0.00002466,0.00002763,-0.00339183,0.004492
 66,-0.00178754,-0.00217462,0.00070434,-0.00905944,-0.00002825,-0.00000
 795,0.00000317,-0.00028718,-0.00007814,0.00004744,-0.00048283,-0.00038
 715,0.00009577,-0.00015045,-0.00009457,0.00005822,-0.00009766,0.000004
 48,-0.00000130,0.00016925,-0.00001123,-0.00005953,0.00021866,-0.000196
 33,-0.00007597,0.00188065,-0.00159789,0.00076640,-0.05792824,0.0333837
 8,-0.11654868,0.00067455,0.00061172,-0.00039643,0.00033431,0.00014789,
 -0.00014318,0.00012188,0.00002328,-0.00005447,-0.00004742,0.00002569,0
 .00001382,-0.00003461,0.00008330,-0.00000223,-0.00000266,0.00089306,-0
 .00023027,0.06684456,-0.03846274,0.12742370,-0.00005836,-0.00047427,-0
 .00003251,0.00014137,0.00038246,-0.00001768,0.00009366,0.00015303,0.00
 000999,-0.00009773,0.00019146,-0.00002030,-0.00052702,-0.00029788,-0.0
 0002626,-0.00024736,-0.00134235,0.00028351,-0.00000953,0.00043692,-0.0
 0007881,0.00040228,0.00030329,-0.00015114,0.00053022,-0.00068628,0.000
 11631,-0.00183040,0.00044343,-0.00049371,0.00024252,0.00277006,-0.0002
 7824,-0.00034593,0.00121288,-0.00001594,0.00043225,-0.00005948,-0.0000
 1147,-0.00016118,-0.00073002,0.00031507,-0.00041911,0.00014103,0.00004
 907,0.00011704,0.00003853,0.00003860,0.00007869,0.00013037,0.00000313,
 0.00025452,-0.00003043,0.00003757,0.00000601,0.00013005,-0.00003975,0.
 00017622,-0.00009579,0.00009330,-0.00009616,0.00018781,0.00000982,-0.0
 0006548,0.00011618,0.00001040,0.00015225,-0.00060209,0.00014801,-0.000
 11096,-0.00020209,0.00009223,-0.00011638,0.00002347,-0.00004723,0.0006
 3931,0.00115413,-0.00066311,0.00287329,0.00013718,0.00107257,-0.021073
 82,0.00583935,-0.00182344,-0.00040670,0.00048587,-0.00033398,0.0001467
 2,-0.00033365,0.00003738,-0.00020077,-0.00021851,-0.00004393,-0.000677
 18,0.00036822,-0.00020507,0.00073286,0.00091424,-0.00006111,-0.0684571
 8,0.06293710,-0.03577045,0.00359206,-0.00388249,0.00301249,0.00054369,
 -0.00021836,-0.00004521,-0.00006462,0.00011466,-0.00000357,0.00003137,
 0.00008231,-0.00001166,0.00009807,-0.00009523,0.00005251,-0.00010946,-
 0.00017811,-0.00002669,0.08614497,-0.00044237,0.00027763,-0.00008970,0
 .00042286,-0.00056876,0.00002558,0.00007786,-0.00022189,-0.00001054,0.
 00018756,-0.00004344,0.00001650,0.00005272,0.00079666,0.00009496,-0.00
 199500,0.00070477,-0.00103158,0.00031046,-0.00006286,0.00004262,0.0001
 4770,-0.00077801,0.00024305,-0.00043997,-0.00000439,-0.00000073,0.0018
 4640,0.00200933,0.00029282,0.00401991,-0.00666997,0.00069298,0.0004451
 6,0.00039029,0.00002610,-0.00031683,-0.00027217,0.00002599,-0.00127136
 ,-0.00002287,-0.00035494,0.00021597,0.00000484,-0.00004746,0.00004763,
 -0.00016356,-0.00002171,0.00007052,-0.00011559,-0.00003633,-0.00008808
 ,-0.00018141,0.00004438,0.00013210,-0.00002879,0.00000747,-0.00027181,
 -0.00035491,-0.00010090,0.00009678,-0.00002484,0.00000778,0.00009860,0
 .00005407,-0.00003674,-0.00031619,0.00007935,-0.00011400,-0.00024657,0
 .00018841,0.00010716,0.00006395,0.00002951,0.00002700,0.00099639,0.000
 56200,-0.00002397,0.00011752,-0.00746591,0.00965208,0.00154826,0.00171
 655,0.00044026,0.00030600,0.00004766,0.00007883,-0.00031658,0.00004964
 ,0.00001552,-0.00010305,0.00034813,0.00004196,0.00056381,0.00040869,0.
 00011467,0.00122458,-0.00042948,0.00011966,0.06261720,-0.07421768,0.03
 516548,-0.00065261,-0.00085112,0.00043491,-0.00026026,-0.00006805,0.00
 004199,0.00008234,-0.00004687,-0.00001036,0.00001560,-0.00013731,0.000
 02378,-0.00015153,-0.00013797,-0.00002731,-0.00027949,0.00020663,-0.00
 026449,-0.06894292,0.08472222,0.00004248,-0.00011027,-0.00013920,-0.00
 001487,-0.00004704,0.00019132,-0.00003672,0.00009856,0.00008113,-0.000
 03369,0.00002120,0.00004396,-0.00002312,-0.00030298,-0.00037671,-0.000
 07403,-0.00024572,-0.00101320,-0.00013694,0.00012415,0.00009743,-0.000
 36168,0.00059042,0.00051406,0.00017459,-0.00007911,-0.00016255,-0.0007
 9180,-0.00190008,-0.00281282,0.00088784,-0.00188406,0.00182092,-0.0000
 6147,0.00013568,0.00024805,0.00002686,-0.00001549,0.00022046,0.0001071
 1,-0.00027596,0.00058361,-0.00007086,0.00000341,0.00005046,0.00000708,
 0.00002369,0.00004781,-0.00001829,0.00001440,0.00003983,0.00004074,0.0
 0007830,0.00008429,-0.00004784,0.00002035,0.00002160,0.00021878,0.0004
 9410,0.00035999,-0.00004371,0.00004469,0.00003005,-0.00003291,-0.00001
 272,0.00002741,0.00010257,-0.00025237,0.00018491,-0.00002531,-0.000034
 46,0.00024517,-0.00001909,-0.00000209,0.00001694,-0.00082822,0.0000831
 5,0.00080125,0.00105957,0.01319588,-0.00712438,-0.00007529,0.00014621,
 0.00320167,-0.00026331,0.00005750,0.00006803,0.00009288,-0.00003806,-0
 .00008514,0.00000899,-0.00010633,-0.00012295,-0.00017569,-0.00022560,-
 0.00063419,0.00026389,0.00037796,-0.00045007,-0.03532258,0.03508588,-0
 .02932855,0.00064338,0.00051570,-0.00068965,0.00008692,0.00001176,-0.0
 0007014,-0.00002933,0.00002138,0.00001461,-0.00000181,0.00003690,0.000
 01107,0.00006209,0.00003733,0.00008432,0.00000789,-0.00012594,0.000159
 98,0.03470471,-0.04547227,0.03371254,-0.00052707,0.00029811,0.00002630
 ,0.00014122,-0.00038262,0.00001768,0.00009364,-0.00015309,-0.00001000,
 0.00043237,0.00005945,0.00001146,-0.00005822,0.00047431,0.00003249,-0.
 00024668,0.00134244,-0.00028385,0.00040225,-0.00030355,0.00015122,-0.0
 0000962,-0.00043690,0.00007881,-0.00183113,-0.00044284,0.00049401,0.00
 053035,0.00068617,-0.00011631,-0.00034618,-0.00121265,0.00001599,0.000
 24103,-0.00277181,0.00027900,-0.00009778,-0.00019145,0.00002030,-0.000
 41914,-0.00014098,-0.00004908,-0.00016327,0.00073357,-0.00031505,0.000
 07866,-0.00013040,-0.00000314,0.00011705,-0.00003856,-0.00003861,0.000
 00597,-0.00013005,0.00003974,0.00025457,0.00003039,-0.00003758,-0.0000
 9618,-0.00018779,-0.00000983,0.00017630,0.00009571,-0.00009338,0.00015
 232,0.00060225,-0.00014811,-0.00006550,-0.00011615,-0.00001042,-0.0001
 1639,-0.00002346,0.00004722,-0.00011097,0.00020212,-0.00009232,0.00063
 885,-0.00115421,0.00066357,-0.00040671,-0.00048575,0.00033398,-0.02107
 117,-0.00583649,0.00182868,0.00287340,-0.00013936,-0.00107092,-0.00067
 740,-0.00036817,0.00020520,-0.00020075,0.00021859,0.00004395,0.0001468
 0,0.00033363,-0.00003736,0.00054371,0.00021829,0.00004524,0.00359262,0
 .00388210,-0.00301303,-0.06847350,-0.06292557,0.03578574,0.00073298,-0
 .00091447,0.00006129,0.00009811,0.00009523,-0.00005253,0.00003136,-0.0
 0008234,0.00001166,-0.00006464,-0.00011466,0.00000356,-0.00012784,-0.0
 0001129,-0.00009197,-0.00222619,0.00031579,-0.00002212,0.08616223,-0.0
 0005262,0.00079657,0.00009484,-0.00042294,-0.00056877,0.00002564,-0.00
 007787,-0.00022185,-0.00001052,0.00031675,-0.00027217,0.00002605,0.000
 44239,0.00027753,-0.00008973,0.00199513,0.00070435,-0.00103193,-0.0001
 4769,-0.00077782,0.00024321,-0.00031043,-0.00006277,0.00004264,-0.0018
 4590,0.00200915,0.00029188,0.00043986,-0.00000450,-0.00000073,-0.00044
 510,0.00039047,0.00002614,-0.00402151,-0.00667065,0.00069425,-0.000187
 54,-0.00004340,0.00001650,-0.00021590,0.00000488,-0.00004745,0.0012749
 2,-0.00002826,-0.00035561,-0.00007053,-0.00011558,-0.00003632,-0.00004
 765,-0.00016355,-0.00002170,-0.00013209,-0.00002876,0.00000747,0.00008
 803,-0.00018140,0.00004441,-0.00009676,-0.00002481,0.00000778,0.000271
 71,-0.00035480,-0.00010078,0.00031620,0.00007917,-0.00011395,-0.000098
 59,0.00005410,-0.00003674,-0.00006392,0.00002952,0.00002699,0.00024660
 ,0.00018840,0.00010719,-0.00099646,0.00056215,-0.00002396,-0.00030589,
 0.00004773,0.00007877,-0.00154325,0.00171805,0.00044048,-0.00012004,-0
 .00746034,0.00965102,-0.00056367,0.00040871,0.00011447,0.00010309,0.00
 034807,0.00004192,0.00031654,0.00004957,0.00001552,0.00026016,-0.00006
 810,0.00004199,0.00065181,-0.00085197,0.00043545,-0.06260711,-0.074181
 05,0.03516974,-0.00122487,-0.00042939,0.00011963,0.00015149,-0.0001379
 8,-0.00002728,-0.00001561,-0.00013729,0.00002378,-0.00008233,-0.000046
 84,-0.00001037,-0.00007091,0.00003363,-0.00006542,-0.00031536,0.000237
 85,-0.00007499,0.06892831,0.08468556,0.00002317,-0.00030309,-0.0003767
 0,0.00001489,-0.00004693,0.00019130,0.00003671,0.00009858,0.00008113,-
 0.00002695,-0.00001547,0.00022045,-0.00004251,-0.00011034,-0.00013918,
 0.00007383,-0.00024588,-0.00101283,0.00036169,0.00059049,0.00051399,0.
 00013693,0.00012417,0.00009738,0.00079211,-0.00190080,-0.00281267,-0.0
 0017468,-0.00007923,-0.00016250,0.00006160,0.00013597,0.00024802,-0.00
 088748,-0.00188289,0.00182118,0.00003372,0.00002123,0.00004395,0.00007
 095,0.00000343,0.00005047,-0.00010721,-0.00027652,0.00058387,0.0000182
 9,0.00001443,0.00003983,-0.00000710,0.00002370,0.00004781,0.00004784,0
 .00002037,0.00002159,-0.00004077,0.00007831,0.00008428,0.00004372,0.00
 004472,0.00003005,-0.00021877,0.00049413,0.00035999,-0.00010263,-0.000
 25243,0.00018495,0.00003292,-0.00001270,0.00002741,0.00001912,-0.00000
 209,0.00001693,0.00002530,-0.00003447,0.00024523,0.00082804,0.00008272
 ,0.00080065,0.00026337,0.00005761,0.00006792,0.00007992,0.00014766,0.0
 0320115,-0.00105705,0.01319504,-0.00712729,0.00017581,-0.00022562,-0.0
 0063421,-0.00000897,-0.00010638,-0.00012296,-0.00009292,-0.00003811,-0
 .00008513,-0.00008703,0.00001172,-0.00007015,-0.00064390,0.00051489,-0
 .00068888,0.03533854,0.03508987,-0.02934138,-0.00026384,0.00037808,-0.
 00045019,-0.00006211,0.00003734,0.00008433,0.00000181,0.00003692,0.000
 01107,0.00002935,0.00002140,0.00001461,0.00002773,-0.00001303,0.000043
 37,0.00002260,-0.00007505,0.00000333,-0.03472813,-0.04547578,0.0337277
 8,0.00044452,0.00039592,-0.00009458,-0.00020326,-0.00012272,-0.0000029
 9,-0.00008608,-0.00010263,-0.00000956,-0.00015405,-0.00049795,0.000097
 63,0.00022392,0.00012370,-0.00002291,0.00052033,0.00018652,-0.00013927
 ,-0.00024900,-0.00015222,0.00009209,-0.00014280,-0.00003768,0.00001771
 ,0.00141331,0.00136510,-0.00190627,0.00022235,0.00004410,0.00000527,-0
 .00018630,0.00001138,0.00000431,-0.00072120,0.00014258,0.00008630,-0.0
 0009729,-0.00003060,0.00000927,-0.00012274,-0.00000979,-0.00002316,-0.
 00853196,-0.00128844,0.00676666,-0.00006396,-0.00004601,-0.00002655,-0
 .00012253,-0.00014765,0.00000262,-0.00007635,-0.00001692,0.00000476,-0
 .00014586,-0.00021014,0.00015060,-0.00005410,-0.00002629,0.00000214,0.
 00008642,-0.00030504,0.00034463,-0.00065132,-0.00307388,0.00251523,-0.
 00005157,0.00001154,-0.00001832,-0.00003918,0.00000817,0.00001421,0.00
 219942,-0.00032741,-0.00052887,-0.00030501,0.00005849,0.00005016,-0.00
 012870,-0.00002443,0.00004103,-0.00024905,0.00008876,-0.00001111,-0.00
 050967,0.00041166,0.00036526,0.00061810,0.00100885,-0.00075420,0.00017
 323,0.00022863,-0.00001162,0.00017618,0.00005154,0.00001095,0.00016291
 ,-0.00000392,0.00002387,0.00045645,-0.00011253,0.00001085,0.00081907,-
 0.00068657,-0.00008684,-0.04163392,-0.01883509,0.05972427,0.00008540,-
 0.00070726,0.00020226,-0.00002495,-0.00010142,0.00002276,-0.00005087,-
 0.00003701,-0.00000568,-0.00004381,0.00001093,-0.00003654,-0.00012784,
 0.00007094,-0.00002770,-0.00010946,0.00027953,-0.00000791,0.04728121,0
 .00060554,0.00003346,-0.00010374,-0.00016899,0.00007941,-0.00000392,-0
 .00012083,0.00000374,0.00000523,-0.00101379,0.00028023,0.00002137,0.00
 017646,-0.00007407,-0.00001597,0.00012261,-0.00029345,0.00007367,-0.00
 021281,0.00021494,0.00003624,-0.00007618,0.00006945,0.00000535,0.00023
 543,-0.00104161,0.00032115,0.00004538,-0.00009651,0.00001958,-0.000004
 77,0.00008444,-0.00000371,0.00010397,0.00019861,-0.00001723,-0.0000494
 9,0.00002524,0.00000253,-0.00001201,0.00001916,-0.00000885,0.00097067,
 0.00185492,-0.00075967,-0.00009591,0.00002547,-0.00002290,-0.00016813,
 -0.00009435,0.00002564,-0.00006810,0.00002701,-0.00000612,-0.00042768,
 -0.00006623,0.00015268,-0.00001877,0.00002565,0.00000565,-0.00054450,0
 .00077628,0.00062686,-0.00637599,-0.00662744,0.00670880,-0.00002905,0.
 00003745,-0.00001355,-0.00000915,0.00001257,0.00000271,-0.00020160,0.0
 0240747,-0.00097426,-0.00000356,0.00009860,-0.00003124,0.00000812,0.00
 004416,-0.00000906,0.00010375,0.00007604,-0.00003264,-0.00004339,0.000
 18958,-0.00009246,0.00366868,0.00116898,-0.00271495,0.00028065,0.00008
 090,-0.00004564,0.00010789,-0.00005406,0.00002194,0.00002855,-0.000053
 36,0.00001411,-0.00005315,-0.00016906,0.00006955,-0.00023604,-0.000439
 32,0.00017956,-0.01888666,-0.01968299,0.03458480,-0.00015138,-0.001240
 33,0.00057540,-0.00004422,-0.00004475,0.00001561,-0.00002535,0.0000017
 0,-0.00000554,-0.00001093,0.00001344,-0.00001472,0.00001131,0.00003362
 ,-0.00001303,0.00017817,0.00020660,-0.00012599,0.02240526,0.02188843,-
 0.00060084,-0.00030154,-0.00010087,0.00020880,0.00005756,0.00007235,0.
 00012652,0.00009407,0.00005369,0.00077758,0.00025179,0.00022907,-0.000
 22584,-0.00006142,-0.00004047,-0.00044299,-0.00000208,-0.00008034,0.00
 036708,0.00003556,0.00002853,0.00014884,0.00000687,0.00001705,-0.00157
 515,-0.00035897,0.00052301,-0.00018615,0.00000275,-0.00005656,0.000129
 24,-0.00002011,0.00004167,0.00047156,-0.00009838,0.00008474,0.00008018
 ,0.00001061,0.00001568,0.00009095,-0.00000143,0.00003213,0.00495368,0.
 00042685,-0.00125391,0.00009025,0.00002234,0.00005490,0.00013695,0.000
 14353,0.00004131,0.00008873,-0.00000120,0.00001515,0.00041717,0.000270
 38,-0.00004689,0.00004850,0.00001591,0.00001075,0.00030784,0.00034157,
 0.00003427,0.00339250,0.00449268,-0.00178804,0.00004989,-0.00002466,0.
 00002763,0.00002825,-0.00000795,0.00000317,0.00217493,0.00070356,-0.00
 905935,0.00028715,-0.00007817,0.00004743,0.00009767,0.00000448,-0.0000
 0131,0.00015043,-0.00009458,0.00005820,0.00048275,-0.00038720,0.000095
 83,-0.00188096,-0.00159777,0.00076656,-0.00021868,-0.00019631,-0.00007
 597,-0.00016925,-0.00001122,-0.00005953,-0.00012188,0.00002329,-0.0000
 5447,-0.00033431,0.00014791,-0.00014315,-0.00067442,0.00061178,-0.0003
 9649,0.05793385,0.03337534,-0.11655224,0.00000274,0.00089311,-0.000230
 33,0.00003462,0.00008330,-0.00000223,0.00004742,0.00002569,0.00001382,
 0.00003654,-0.00001473,0.00004443,0.00009196,-0.00006544,0.00004335,0.
 00002664,-0.00026452,0.00016004,-0.06685075,-0.03845325,0.12742738\\-0
 .00000053,0.00000653,-0.00002999,0.00000022,-0.00001399,0.00000875,0.0
 0000020,-0.00001024,-0.00000019,-0.00000011,-0.00000801,-0.00002015,0.
 00000001,0.00000665,-0.00003018,0.,-0.00003401,0.00004997,-0.00000056,
 0.00001217,0.00001037,0.00000075,0.00001193,0.00001017,-0.00000618,-0.
 00000644,0.00002958,0.00000595,-0.00000600,0.00003025,-0.00000230,0.00
 002217,-0.00001253,0.00000226,0.00002160,-0.00001189,-0.00000007,-0.00
 000816,-0.00002020,-0.00000493,-0.00000351,0.00000085,0.00000489,-0.00
 000320,0.00000111,-0.00000335,-0.00000311,-0.00001839,0.00000348,-0.00
 000306,-0.00001845,-0.00000391,0.00001124,0.00000048,0.00000397,0.0000
 1138,0.00000041,-0.00000383,0.00000151,-0.00000964,0.00000379,0.000001
 52,-0.00000951,0.00001421,0.00001019,-0.00001058,-0.00001449,0.0000103
 7,-0.00001095,-0.00000201,-0.00000811,0.00000606,0.00000195,-0.0000081
 2,0.00000622,-0.00000254,-0.00000639,-0.00001230,-0.00000527,-0.000012
 76,0.00000735,0.00000070,0.00000353,0.00000961,0.00000348,-0.00001163,
 0.00000793,-0.00001949,-0.00002434,0.00000290,-0.00000006,0.00001290,-
 0.00001584,0.00001990,-0.00002426,0.00000316,0.00000917,0.00001762,0.0
 0001903,0.00002293,0.00000644,0.00001290,-0.00001962,0.00000950,0.0000
 0895,-0.00000909,0.00001755,0.00001853,0.00000036,0.00000101,-0.000016
 14,0.00000001,-0.00000360,-0.00001926,-0.00000034,0.00000098,-0.000016
 21,-0.00000017,0.00000094,-0.00000023,-0.00000379,0.00000044,0.0000193
 5,0.00000424,-0.00000032,0.00001885,0.00000017,0.00000106,-0.00000017\
 \\@


 I am not a vegetarian because I love animals;
 I am a vegetarian because I hate plants.
                               -- A. Whitney Brown
 Job cpu time:       0 days 23 hours 18 minutes 47.6 seconds.
 Elapsed time:       0 days  0 hours 58 minutes 20.2 seconds.
 File lengths (MBytes):  RWF=   5309 Int=      0 D2E=      0 Chk=     71 Scr=      1
 Normal termination of Gaussian 16 at Fri Jan  8 17:38:03 2021.
